<?xml version="1.0"?>
<VTKFile type="UnstructuredGrid" version="0.1" byte_order="LittleEndian" header_type="UInt32" compressor="vtkZLibDataCompressor">
  <UnstructuredGrid>
    <Piece NumberOfPoints="30" NumberOfCells="10">
      <PointData>
        <DataArray type="Float64" Name="node_value" format="ascii" RangeMin="0.5" RangeMax="1">
          1 0.5 1 1 0.5 1
          1 0.5 1 1 0.5 1
          1 0.5 1 1 0.5 1
          1 0.5 1 1 0.5 1
          1 0.5 1 1 0.5 1
        </DataArray>
        <DataArray type="Float64" Name="base_vector_1" NumberOfComponents="3" format="ascii" RangeMin="0.9999999999999998" RangeMax="1.0000000000000002">
          0 0.9528905139886873 0.30331447105335285 -0.29445936260118283 0.9062527326447793 0.3033144710533528
          -0.560094991171945 0.7709046195955266 0.30331447105335285 -0.560094991171945 0.7709046195955266 0.30331447105335285
          -0.7709046195955267 0.5600949911719451 0.3033144710533529 -0.9062527326447795 0.2944593626011831 0.30331447105335296
          -0.9062527326447795 0.2944593626011831 0.30331447105335296 -0.9528905139886875 0 0.30331447105335285
          -0.9062527326447796 -0.294459362601183 0.30331447105335296 -0.9062527326447796 -0.294459362601183 0.30331447105335296
          -0.770904619595527 -0.5600949911719447 0.3033144710533531 -0.5600949911719455 -0.7709046195955264 0.30331447105335285
          -0.5600949911719455 -0.7709046195955264 0.30331447105335285 -0.29445936260118266 -0.9062527326447793 0.30331447105335296
          0 -0.9528905139886873 0.30331447105335285 0 -0.9528905139886873 0.30331447105335285
          0.294459362601182 -0.9062527326447796 0.30331447105335285 0.5600949911719444 -0.7709046195955273 0.3033144710533529
          0.5600949911719444 -0.7709046195955273 0.3033144710533529 0.7709046195955249 -0.5600949911719472 0.3033144710533529
          0.9062527326447786 -0.2944593626011847 0.30331447105335285 0.9062527326447786 -0.2944593626011847 0.30331447105335285
          0.9528905139886873 0 0.30331447105335285 0.9062527326447799 0.2944593626011811 0.30331447105335285
          0.9062527326447799 0.2944593626011811 0.30331447105335285 0.7709046195955276 0.5600949911719435 0.3033144710533529
          0.5600949911719464 0.7709046195955254 0.3033144710533528 0.5600949911719464 0.7709046195955254 0.3033144710533528
          0.29445936260118466 0.9062527326447787 0.30331447105335285 0 0.9528905139886873 0.30331447105335285
          <InformationKey name="L2_NORM_RANGE" location="vtkDataArray" length="2">
            <Value index="0">
              1
            </Value>
            <Value index="1">
              1
            </Value>
          </InformationKey>
        </DataArray>
        <DataArray type="Float64" Name="base_vector_2" NumberOfComponents="3" format="ascii" RangeMin="0.9999999999999997" RangeMax="1.0000000000000002">
          0 -0.30331447105335296 0.9528905139886873 0.002130028382464677 -0.31676294097944013 0.9485023469665985
          0.020617844009518493 -0.3530473221529382 0.9353782618967786 0.020617844009518493 -0.3530473221529382 0.9353782618967786
          0.06831548594113457 -0.4007449640845542 0.9136391345282316 0.15168261726054819 -0.4432226391431394 0.8834851870699253
          0.15168261726054819 -0.4432226391431394 0.8834851870699253 0.2690336518115546 -0.46180921707200595 0.8451941440996149
          0.4102417147656455 -0.43944405705171036 0.7991186746585744 0.4102417147656455 -0.43944405705171036 0.7991186746585744
          0.5579758348207299 -0.36416976312497934 0.7456831440911122 0.690287117157293 -0.23185848078841625 0.6853797055451537
          0.690287117157293 -0.23185848078841625 0.6853797055451537 0.7841285682491421 -0.047684263023704765 0.6187637671320424
          0.8192304157308902 0.17394007968207392 0.5464488764940288 0.8192304157308902 0.17394007968207392 0.5464488764940288
          0.7816855769517979 0.4109888623917999 0.4691010698937158 0.6666399141904599 0.6367786887400055 0.38743273787161503
          0.6666399141904599 0.6367786887400055 0.38743273787161503 0.47962282365806697 0.8237957792723989 0.3021960639704687
          0.23627252403722662 0.9477889500713121 0.2141760969571478 0.23627252403722662 0.9477889500713121 0.2141760969571478
          -0.039528842228037736 0.9914715951079791 0.12418352034851665 -0.31883549753586216 0.9472337668281317 0.03304718583552996
          -0.31883549753586216 0.9472337668281317 0.03304718583552996 -0.5716431736792815 0.8184218220055144 -0.05839352062560313
          -0.7710924607766245 0.618972534908172 -0.14929640974518169 -0.7710924607766245 0.618972534908172 -0.14929640974518169
          -0.8972097569471678 0.3714534045179607 -0.2388242456511067 -0.9395991117426435 0.10381755147193153 -0.3261524570178919
          <InformationKey name="L2_NORM_RANGE" location="vtkDataArray" length="2">
            <Value index="0">
              1
            </Value>
            <Value index="1">
              1
            </Value>
          </InformationKey>
        </DataArray>
        <DataArray type="Float64" Name="base_vector_3" NumberOfComponents="3" format="ascii" RangeMin="0.9999999999999998" RangeMax="1.0000000000000002">
          1 0 0 0.9556616277509498 0.27994146494566646 0.09134346965426254
          0.8281717849410821 0.5301543697895131 0.18184564559149097 0.8281717849410821 0.5301543697895131 0.18184564559149097
          0.6332764497965349 0.7250497049340606 0.2706729825973194 0.3945863254027696 0.8466683978556752 0.3570073610972808
          0.3945863254027696 0.8466683978556752 0.3570073610972808 0.14007341840375864 0.8869792821860842 0.44005362222045696
          -0.10201823386048695 0.8486357313349696 0.5190468913899292 -0.10201823386048695 0.8486357313349696 0.5190468913899292
          -0.3071954349309014 0.7440927257335581 0.5932596229881304 -0.4580363487222081 0.5932518119422515 0.6620083012141642
          -0.4580363487222081 0.5932518119422515 0.6620083012141642 -0.5462930278083874 0.4200383263867194 0.7246597354166908
          -0.5734644940546821 0.24848444021823377 0.7806368919209739 -0.5734644940546821 0.24848444021823377 0.7806368919209739
          -0.5497829958829576 0.09896534526673342 0.8294242086376523 -0.4918178785609934 -0.014797602942192595 0.870572343504507
          -0.4918178785609934 -0.014797602942192595 0.870572343504507 -0.4191276828277292 -0.08748779867545696 0.9037023130270172
          -0.35054426105550407 -0.12243279748181624 0.9285089828008273 -0.35054426105550407 -0.12243279748181624 0.9285089828008273
          -0.3007276824346008 -0.13032296840557134 0.9447638778676258 -0.27757865567245676 -0.1266565227577915 0.9523172870204429
          -0.27757865567245676 -0.1266565227577915 0.9523172870204429 -0.28094510045941984 -0.12837181205106704 0.9510996416772387
          -0.30283661898381214 -0.1502633305754593 0.9411221566230514 -0.30283661898381214 -0.1502633305754593 0.9411221566230514
          -0.32910231815547575 -0.2018126677042039 0.9224767267193272 -0.34227694811721543 -0.2849940075804193 0.8953350805317619
          <InformationKey name="L2_NORM_RANGE" location="vtkDataArray" length="2">
            <Value index="0">
              1
            </Value>
            <Value index="1">
              1
            </Value>
          </InformationKey>
        </DataArray>
      </PointData>
      <CellData>
        <DataArray type="Float64" Name="cross_section_radius" format="ascii" RangeMin="0.1" RangeMax="0.1">
          0.1 0.1 0.1 0.1 0.1 0.1
          0.1 0.1 0.1 0.1
        </DataArray>
      </CellData>
      <Points>
        <DataArray type="Float32" Name="Points" NumberOfComponents="3" format="ascii" RangeMin="2" RangeMax="4.47213595499958">
          2 0 0 1.9021131 0.618034 0.2
          1.618034 1.1755705 0.4 1.618034 1.1755705 0.4
          1.1755705 1.618034 0.6 0.618034 1.9021131 0.8
          0.618034 1.9021131 0.8 5.6655387e-16 2 1
          -0.618034 1.9021131 1.2 -0.618034 1.9021131 1.2
          -1.1755705 1.618034 1.4 -1.618034 1.1755705 1.6
          -1.618034 1.1755705 1.6 -1.9021131 0.618034 1.8
          -2 2.0212862e-15 2 -2 2.0212862e-15 2
          -1.9021131 -0.618034 2.2 -1.618034 -1.1755705 2.4
          -1.618034 -1.1755705 2.4 -1.1755705 -1.618034 2.6
          -0.618034 -1.9021131 2.8 -0.618034 -1.9021131 2.8
          -2.1437508e-15 -2 3 0.618034 -1.9021131 3.2
          0.618034 -1.9021131 3.2 1.1755705 -1.618034 3.4
          1.618034 -1.1755705 3.6 1.618034 -1.1755705 3.6
          1.9021131 -0.618034 3.8 2 -5.818929e-15 4
          <InformationKey name="L2_NORM_RANGE" location="vtkDataArray" length="2">
            <Value index="0">
              2
            </Value>
            <Value index="1">
              4.472135955
            </Value>
          </InformationKey>
        </DataArray>
      </Points>
      <Cells>
        <DataArray type="Int64" Name="connectivity" format="ascii" RangeMin="0" RangeMax="29">
          0 1 2 3 4 5
          6 7 8 9 10 11
          12 13 14 15 16 17
          18 19 20 21 22 23
          24 25 26 27 28 29
        </DataArray>
        <DataArray type="Int64" Name="offsets" format="ascii" RangeMin="3" RangeMax="30">
          3 6 9 12 15 18
          21 24 27 30
        </DataArray>
        <DataArray type="UInt8" Name="types" format="ascii" RangeMin="4" RangeMax="4">
          4 4 4 4 4 4
          4 4 4 4
        </DataArray>
      </Cells>
    </Piece>
  </UnstructuredGrid>
</VTKFile>
