<?xml version="1.0"?>
<VTKFile type="UnstructuredGrid" version="0.1" byte_order="LittleEndian" header_type="UInt32" compressor="vtkZLibDataCompressor">
  <UnstructuredGrid>
    <Piece NumberOfPoints="27" NumberOfCells="4">
      <PointData Scalars="sort_id">
        <DataArray type="Int64" Name="sort_id" format="ascii" RangeMin="0" RangeMax="26">
          26 25 24 23 22 21
          20 19 18 17 16 15
          14 13 12 11 10 9
          8 7 6 5 4 3
          2 1 0
        </DataArray>
        <DataArray type="Int64" Name="point_id" format="ascii" RangeMin="0" RangeMax="26">
          0 1 2 3 4 5
          6 7 8 9 10 11
          12 13 14 15 16 17
          18 19 20 21 22 23
          24 25 26
        </DataArray>
      </PointData>
      <CellData Scalars="cell_id">
        <DataArray type="Int64" Name="cell_id" format="ascii" RangeMin="0" RangeMax="3">
          0 1 2 3
        </DataArray>
      </CellData>
      <Points>
        <DataArray type="Float64" Name="Points" NumberOfComponents="3" format="ascii" RangeMin="0" RangeMax="0.04636809247747852">
          0 0 0 0 0.01 0
          0.01 0.01 0 0.01 0 0
          0.02 0 0 0.02 0.01 0
          0.03 0.01 0 0.035 0.005 0
          0.03 0 0 0 0 0.02
          0 0.01 0.02 0.01 0.01 0.02
          0.01 0 0.02 0 0 0.03
          0 0.01 0.03 0.01 0.01 0.03
          0.01 0 0.03 0.02 0 0.02
          0.02 0.01 0.02 0.03 0.01 0.02
          0.035 0.005 0.02 0.03 0 0.02
          0.02 0 0.03 0.02 0.01 0.03
          0.03 0.01 0.03 0.035 0.005 0.03
          0.03 0 0.03
          <InformationKey name="L2_NORM_RANGE" location="vtkDataArray" length="2">
            <Value index="0">
              0
            </Value>
            <Value index="1">
              0.046368092477
            </Value>
          </InformationKey>
        </DataArray>
      </Points>
      <Cells>
        <DataArray type="Int64" Name="connectivity" format="ascii" RangeMin="0" RangeMax="26">
          0 1 2 3 4 5
          6 7 8 9 10 11
          12 13 14 15 16 17
          18 19 20 21 22 23
          24 25 26
        </DataArray>
        <DataArray type="Int64" Name="offsets" format="ascii" RangeMin="4" RangeMax="27">
          4 9 17 27
        </DataArray>
        <DataArray type="UInt8" Name="types" format="ascii" RangeMin="7" RangeMax="42">
          9 7 12 42
        </DataArray>
        <DataArray type="Int64" IdType="1" Name="faces" format="ascii" RangeMin="4" RangeMax="26">
          7 5 17 18 19 20
          21 4 17 18 23 22
          4 17 21 26 22 4
          21 26 25 20 4 20
          25 24 19 4 19 24
          23 18 5 22 23 24
          25 26
        </DataArray>
        <DataArray type="Int64" IdType="1" Name="faceoffsets" format="ascii" RangeMin="-1" RangeMax="38">
          -1 -1 -1 38
        </DataArray>
      </Cells>
    </Piece>
  </UnstructuredGrid>
</VTKFile>
