<?xml version="1.0"?>
<VTKFile type="UnstructuredGrid" version="0.1" byte_order="LittleEndian" header_type="UInt32" compressor="vtkZLibDataCompressor">
  <UnstructuredGrid>
    <Piece NumberOfPoints="210" NumberOfCells="160">
      <PointData Scalars="RegionId">
        <DataArray type="Float64" Name="node_value" format="ascii" RangeMin="0.5" RangeMax="1">
          1 0.5 0.5 1 1 1
          1 0.5 1 0.5 0.5 0.5
          0.5 1 0.5 1 1 1
          1 1 1 0.5 1 0.5
          1 0.5 0.5 0.5 0.5 0.5
          1 1 1 1 1 0.5
          0.5 0.5 0.5 0.5 1 1
          1 1 1 0.5 0.5 0.5
          0.5 0.5 1 1 1 1
          1 0.5 0.5 0.5 0.5 0.5
          1 1 1 1 1 0.5
          0.5 0.5 0.5 0.5 1 1
          1 1 1 0.5 0.5 0.5
          0.5 0.5 1 1 1 1
          1 0.5 0.5 0.5 0.5 0.5
          1 1 1 1 1 0.5
          0.5 0.5 0.5 0.5 1 1
          1 1 1 1 0.5 0.5
          1 1 1 1 0.5 1
          0.5 0.5 0.5 0.5 1 0.5
          1 1 1 1 1 1
          0.5 1 0.5 1 0.5 0.5
          0.5 0.5 0.5 1 1 1
          1 1 0.5 0.5 0.5 0.5
          0.5 1 1 1 1 1
          0.5 0.5 0.5 0.5 0.5 1
          1 1 1 1 0.5 0.5
          0.5 0.5 0.5 1 1 1
          1 1 0.5 0.5 0.5 0.5
          0.5 1 1 1 1 1
          0.5 0.5 0.5 0.5 0.5 1
          1 1 1 1 0.5 0.5
          0.5 0.5 0.5 1 1 1
          1 1 0.5 0.5 0.5 0.5
          0.5 1 1 1 1 1
        </DataArray>
        <DataArray type="Int64" IdType="1" Name="RegionId" format="ascii" RangeMin="0" RangeMax="1">
          1 1 1 1 1 1
          1 1 1 1 1 1
          1 1 1 1 1 1
          1 1 1 1 1 1
          1 1 1 1 1 1
          1 1 1 1 1 1
          1 1 1 1 1 1
          1 1 1 1 1 1
          1 1 1 1 1 1
          1 1 1 1 1 1
          1 1 1 1 1 1
          1 1 1 1 1 1
          1 1 1 1 1 1
          1 1 1 1 1 1
          1 1 1 1 1 1
          1 1 1 1 1 1
          1 1 1 1 1 1
          1 1 1 0 0 0
          0 0 0 0 0 0
          0 0 0 0 0 0
          0 0 0 0 0 0
          0 0 0 0 0 0
          0 0 0 0 0 0
          0 0 0 0 0 0
          0 0 0 0 0 0
          0 0 0 0 0 0
          0 0 0 0 0 0
          0 0 0 0 0 0
          0 0 0 0 0 0
          0 0 0 0 0 0
          0 0 0 0 0 0
          0 0 0 0 0 0
          0 0 0 0 0 0
          0 0 0 0 0 0
          0 0 0 0 0 0
        </DataArray>
      </PointData>
      <CellData Scalars="RegionId">
        <DataArray type="Int64" IdType="1" Name="RegionId" format="ascii" RangeMin="0" RangeMax="1">
          1 1 1 1 1 1
          1 1 1 1 1 1
          1 1 1 1 1 1
          1 1 1 1 1 1
          1 1 1 1 1 1
          1 1 1 1 1 1
          1 1 1 1 1 1
          1 1 1 1 1 1
          1 1 1 1 1 1
          1 1 1 1 1 1
          1 1 1 1 1 1
          1 1 1 1 1 1
          1 1 1 1 1 1
          1 1 0 0 0 0
          0 0 0 0 0 0
          0 0 0 0 0 0
          0 0 0 0 0 0
          0 0 0 0 0 0
          0 0 0 0 0 0
          0 0 0 0 0 0
          0 0 0 0 0 0
          0 0 0 0 0 0
          0 0 0 0 0 0
          0 0 0 0 0 0
          0 0 0 0 0 0
          0 0 0 0 0 0
          0 0 0 0
        </DataArray>
      </CellData>
      <Points>
        <DataArray type="Float32" Name="Points" NumberOfComponents="3" format="ascii" RangeMin="1.9056620133122473" RangeMax="6.117553878614272">
          4 0 0 3.902113 0.618034 0.2
          3.904243 0.30127105 1.1485023 4 -0.30331448 0.9528905
          3.618034 1.1755705 0.4 3.6386518 0.8225232 1.3353783
          4.4668236 1.3526776 1.517224 4.859905 0.5812125 1.2398459
          5 -0.30331448 0.9528905 3.1755705 1.618034 0.6
          3.243886 1.2172891 1.5136392 3.8771625 1.9423387 1.7843121
          3.808847 2.3430836 0.870673 4.4462056 1.7057248 0.58184564
          4.8577747 0.89797544 0.29134348 5 0 0
          2.618034 1.9021131 0.8 2.7697165 1.4588904 1.6834852
          3.1643028 2.305559 2.0404925 3.0126202 2.7487814 1.1570073
          2.8425877 1.8458577 1.5255419 3.4133742 1.5550275 1.3207493
          3.880918 1.0874836 1.1093185 4.1903024 0.4802824 0.8913547
          4.3 -0.21232013 0.66702336 2 2 1
          2.2690337 1.5381908 1.8451941 2.409107 2.4251702 2.2852478
          2.1400733 2.8869793 1.4400536 2.2303455 1.9428273 1.723652
          1.381966 1.9021131 1.2 1.7922077 1.462669 1.9991187
          1.6901895 2.3113048 2.5181656 1.2799478 2.7507489 1.719047
          1.6385298 1.849093 1.9150972 0.8244295 1.618034 1.4
          1.3824054 1.2538643 2.145683 1.0752099 1.997957 2.7389429
          0.5172341 2.3621268 1.9932595 1.122854 1.5863429 2.099956
          0.381966 1.1755705 1.6 1.0722531 0.943712 2.2853796
          0.61421674 1.5369638 2.947388 -0.07607035 1.7688223 2.2620084
          0.7277561 1.1912451 2.2783682 0.09788692 0.618034 1.8
          0.88201547 0.57034975 2.4187636 0.33572245 0.9903881 3.1434236
          -0.4484061 1.0380723 2.5246596 0.482889 0.71066654 2.4505324
          0 2.0212862e-15 2 0.81923044 0.17394008 2.546449
          0.24576592 0.42242453 3.3270857 -0.5734645 0.24848445 2.7806368
          0.40142193 0.19630338 2.6167052 0.09788692 -0.618034 2.2
          0.8795725 -0.20704514 2.669101 0.3297895 -0.1080798 3.4985254
          -0.45189607 -0.51906866 3.0294242 0.48013192 -0.3006522 2.777198
          0.381966 -1.1755705 2.4 1.0486059 -0.5387918 2.787433
          0.556788 -0.5535894 3.6580052 -0.10985188 -1.190368 3.2705724
          0.7010686 -0.7342647 2.9323747 0.8244295 -1.618034 2.6
          1.3040524 -0.7942382 2.902196 0.88492465 -0.881726 3.8058982
          0.40530184 -1.7055218 3.5037022 1.0344272 -1.0676233 3.0826478
          1.381966 -1.9021131 2.8 1.6182386 -0.9543241 3.0141761
          1.2676942 -1.076757 3.9426851 1.0314218 -2.024546 3.728509
          1.4421935 -1.2753906 3.2284758 2 -2 3
          1.9604712 -1.0085284 3.1241834 1.6597434 -1.1388514 4.0689473
          1.6992723 -2.130323 3.944764 1.8821115 -1.3450668 3.3703575
          2.618034 -1.9021131 3.2 2.2991984 -0.9548793 3.2330472
          2.0216198 -1.0815358 4.1853647 2.3404553 -2.0287695 4.1523175
          2.3115754 -1.2770464 3.5088282 3.1755705 -1.618034 3.4
          2.6039274 -0.79961216 3.3416066 2.3229823 -0.927984 4.292706
          2.8946254 -1.7464058 4.3511 2.6911368 -1.0836502 3.6444545
          3.618034 -1.1755705 3.6 2.8469415 -0.55659795 3.4507034
          2.5441048 -0.70686126 4.3918257 3.3151972 -1.3258338 4.541122
          2.9874182 -0.7873687 3.7778292 3.902113 -0.618034 3.8
          3.0049033 -0.2465806 3.5611758 2.6758008 -0.44839326 4.4836526
          3.5730107 -0.8198467 4.7224765 3.1753354 -0.41856042 3.909566
          4 -5.818929e-15 4 3.060401 0.10381755 3.6738474
          2.718124 -0.18117645 4.5691824 3.657723 -0.284994 4.895335
          3.2395976 -0.0128259165 4.0402937 2 0 0
          1.9021131 0.618034 0.2 1.9042431 0.30127105 1.1485023
          2 -0.30331448 0.9528905 1.618034 1.1755705 0.4
          1.6386518 0.8225232 1.3353783 2.4668236 1.3526776 1.517224
          2.8599048 0.5812125 1.2398459 3 -0.30331448 0.9528905
          1.1755705 1.618034 0.6 1.243886 1.2172891 1.5136392
          1.8771625 1.9423387 1.7843121 1.808847 2.3430836 0.870673
          2.4462059 1.7057248 0.58184564 2.8577747 0.89797544 0.29134348
          3 0 0 0.618034 1.9021131 0.8
          0.7697166 1.4588904 1.6834852 1.164303 2.305559 2.0404925
          1.0126203 2.7487814 1.1570073 0.8425877 1.8458577 1.5255419
          1.4133743 1.5550275 1.3207493 1.880918 1.0874836 1.1093185
          2.1903026 0.4802824 0.8913547 2.3 -0.21232013 0.66702336
          5.6655387e-16 2 1 0.26903364 1.5381908 1.8451941
          0.40910706 2.4251702 2.2852478 0.14007342 2.8869793 1.4400536
          0.23034558 1.9428273 1.723652 -0.618034 1.9021131 1.2
          -0.2077923 1.462669 1.9991187 -0.30981052 2.3113048 2.5181656
          -0.72005224 2.7507489 1.719047 -0.36147028 1.849093 1.9150972
          -1.1755705 1.618034 1.4 -0.61759466 1.2538643 2.145683
          -0.9247901 1.997957 2.7389429 -1.4827659 2.3621268 1.9932595
          -0.877146 1.5863429 2.099956 -1.618034 1.1755705 1.6
          -0.9277469 0.943712 2.2853796 -1.3857832 1.5369638 2.947388
          -2.0760703 1.7688223 2.2620084 -1.272244 1.1912451 2.2783682
          -1.9021131 0.618034 1.8 -1.1179845 0.57034975 2.4187636
          -1.6642776 0.9903881 3.1434236 -2.4484062 1.0380723 2.5246596
          -1.517111 0.71066654 2.4505324 -2 2.0212862e-15 2
          -1.1807696 0.17394008 2.546449 -1.7542341 0.42242453 3.3270857
          -2.5734644 0.24848445 2.7806368 -1.5985781 0.19630338 2.6167052
          -1.9021131 -0.618034 2.2 -1.1204275 -0.20704514 2.669101
          -1.6702105 -0.1080798 3.4985254 -2.4518962 -0.51906866 3.0294242
          -1.519868 -0.3006522 2.777198 -1.618034 -1.1755705 2.4
          -0.9513941 -0.5387918 2.787433 -1.4432119 -0.5535894 3.6580052
          -2.1098518 -1.190368 3.2705724 -1.2989315 -0.7342647 2.9323747
          -1.1755705 -1.618034 2.6 -0.69594765 -0.7942382 2.902196
          -1.1150753 -0.881726 3.8058982 -1.5946982 -1.7055218 3.5037022
          -0.96557283 -1.0676233 3.0826478 -0.618034 -1.9021131 2.8
          -0.3817615 -0.9543241 3.0141761 -0.73230577 -1.076757 3.9426851
          -0.9685783 -2.024546 3.728509 -0.5578065 -1.2753906 3.2284758
          -2.1437508e-15 -2 3 -0.039528843 -1.0085284 3.1241834
          -0.3402565 -1.1388514 4.0689473 -0.3007277 -2.130323 3.944764
          -0.117888495 -1.3450668 3.3703575 0.618034 -1.9021131 3.2
          0.2991985 -0.9548793 3.2330472 0.021619853 -1.0815358 4.1853647
          0.34045535 -2.0287695 4.1523175 0.31157556 -1.2770464 3.5088282
          1.1755705 -1.618034 3.4 0.6039273 -0.79961216 3.3416066
          0.32298222 -0.927984 4.292706 0.89462537 -1.7464058 4.3511
          0.6911367 -1.0836502 3.6444545 1.618034 -1.1755705 3.6
          0.84694153 -0.55659795 3.4507034 0.54410493 -0.70686126 4.3918257
          1.3151973 -1.3258338 4.541122 0.9874183 -0.7873687 3.7778292
          1.9021131 -0.618034 3.8 1.0049033 -0.2465806 3.5611758
          0.675801 -0.44839326 4.4836526 1.5730108 -0.8198467 4.7224765
          1.1753355 -0.41856042 3.909566 2 -5.818929e-15 4
          1.0604008 0.10381755 3.6738474 0.7181239 -0.18117645 4.5691824
          1.6577231 -0.284994 4.895335 1.2395976 -0.0128259165 4.0402937
          <InformationKey name="L2_NORM_RANGE" location="vtkDataArray" length="2">
            <Value index="0">
              1.9056620133
            </Value>
            <Value index="1">
              6.1175538786
            </Value>
          </InformationKey>
        </DataArray>
      </Points>
      <Cells>
        <DataArray type="Int64" Name="connectivity" format="ascii" RangeMin="0" RangeMax="209">
          0 1 2 3 3 2
          7 8 8 7 14 15
          15 14 23 24 1 4
          5 2 2 5 6 7
          7 6 13 14 14 13
          22 23 4 9 10 5
          5 10 11 6 6 11
          12 13 13 12 21 22
          9 16 17 10 10 17
          18 11 11 18 19 12
          12 19 20 21 16 25
          26 17 17 26 27 18
          18 27 28 19 19 28
          29 20 25 30 31 26
          26 31 32 27 27 32
          33 28 28 33 34 29
          30 35 36 31 31 36
          37 32 32 37 38 33
          33 38 39 34 35 40
          41 36 36 41 42 37
          37 42 43 38 38 43
          44 39 40 45 46 41
          41 46 47 42 42 47
          48 43 43 48 49 44
          45 50 51 46 46 51
          52 47 47 52 53 48
          48 53 54 49 50 55
          56 51 51 56 57 52
          52 57 58 53 53 58
          59 54 55 60 61 56
          56 61 62 57 57 62
          63 58 58 63 64 59
          60 65 66 61 61 66
          67 62 62 67 68 63
          63 68 69 64 65 70
          71 66 66 71 72 67
          67 72 73 68 68 73
          74 69 70 75 76 71
          71 76 77 72 72 77
          78 73 73 78 79 74
          75 80 81 76 76 81
          82 77 77 82 83 78
          78 83 84 79 80 85
          86 81 81 86 87 82
          82 87 88 83 83 88
          89 84 85 90 91 86
          86 91 92 87 87 92
          93 88 88 93 94 89
          90 95 96 91 91 96
          97 92 92 97 98 93
          93 98 99 94 95 100
          101 96 96 101 102 97
          97 102 103 98 98 103
          104 99 105 106 107 108
          108 107 112 113 113 112
          119 120 120 119 128 129
          106 109 110 107 107 110
          111 112 112 111 118 119
          119 118 127 128 109 114
          115 110 110 115 116 111
          111 116 117 118 118 117
          126 127 114 121 122 115
          115 122 123 116 116 123
          124 117 117 124 125 126
          121 130 131 122 122 131
          132 123 123 132 133 124
          124 133 134 125 130 135
          136 131 131 136 137 132
          132 137 138 133 133 138
          139 134 135 140 141 136
          136 141 142 137 137 142
          143 138 138 143 144 139
          140 145 146 141 141 146
          147 142 142 147 148 143
          143 148 149 144 145 150
          151 146 146 151 152 147
          147 152 153 148 148 153
          154 149 150 155 156 151
          151 156 157 152 152 157
          158 153 153 158 159 154
          155 160 161 156 156 161
          162 157 157 162 163 158
          158 163 164 159 160 165
          166 161 161 166 167 162
          162 167 168 163 163 168
          169 164 165 170 171 166
          166 171 172 167 167 172
          173 168 168 173 174 169
          170 175 176 171 171 176
          177 172 172 177 178 173
          173 178 179 174 175 180
          181 176 176 181 182 177
          177 182 183 178 178 183
          184 179 180 185 186 181
          181 186 187 182 182 187
          188 183 183 188 189 184
          185 190 191 186 186 191
          192 187 187 192 193 188
          188 193 194 189 190 195
          196 191 191 196 197 192
          192 197 198 193 193 198
          199 194 195 200 201 196
          196 201 202 197 197 202
          203 198 198 203 204 199
          200 205 206 201 201 206
          207 202 202 207 208 203
          203 208 209 204
        </DataArray>
        <DataArray type="Int64" Name="offsets" format="ascii" RangeMin="4" RangeMax="640">
          4 8 12 16 20 24
          28 32 36 40 44 48
          52 56 60 64 68 72
          76 80 84 88 92 96
          100 104 108 112 116 120
          124 128 132 136 140 144
          148 152 156 160 164 168
          172 176 180 184 188 192
          196 200 204 208 212 216
          220 224 228 232 236 240
          244 248 252 256 260 264
          268 272 276 280 284 288
          292 296 300 304 308 312
          316 320 324 328 332 336
          340 344 348 352 356 360
          364 368 372 376 380 384
          388 392 396 400 404 408
          412 416 420 424 428 432
          436 440 444 448 452 456
          460 464 468 472 476 480
          484 488 492 496 500 504
          508 512 516 520 524 528
          532 536 540 544 548 552
          556 560 564 568 572 576
          580 584 588 592 596 600
          604 608 612 616 620 624
          628 632 636 640
        </DataArray>
        <DataArray type="UInt8" Name="types" format="ascii" RangeMin="9" RangeMax="9">
          9 9 9 9 9 9
          9 9 9 9 9 9
          9 9 9 9 9 9
          9 9 9 9 9 9
          9 9 9 9 9 9
          9 9 9 9 9 9
          9 9 9 9 9 9
          9 9 9 9 9 9
          9 9 9 9 9 9
          9 9 9 9 9 9
          9 9 9 9 9 9
          9 9 9 9 9 9
          9 9 9 9 9 9
          9 9 9 9 9 9
          9 9 9 9 9 9
          9 9 9 9 9 9
          9 9 9 9 9 9
          9 9 9 9 9 9
          9 9 9 9 9 9
          9 9 9 9 9 9
          9 9 9 9 9 9
          9 9 9 9 9 9
          9 9 9 9 9 9
          9 9 9 9 9 9
          9 9 9 9 9 9
          9 9 9 9 9 9
          9 9 9 9
        </DataArray>
      </Cells>
    </Piece>
  </UnstructuredGrid>
</VTKFile>
