<?xml version="1.0"?>
<VTKFile type="UnstructuredGrid" version="0.1" byte_order="LittleEndian" header_type="UInt32" compressor="vtkZLibDataCompressor">
  <UnstructuredGrid>
    <FieldData>
      <DataArray type="Float64" Name="TIME" NumberOfTuples="1" format="ascii" RangeMin="4" RangeMax="4">
        4
      </DataArray>
    </FieldData>
    <Piece NumberOfPoints="210" NumberOfCells="10">
      <PointData>
        <DataArray type="Float64" Name="axial_strain" format="ascii" RangeMin="-0.0006260217558216603" RangeMax="-0.00006857535553439487">
          -0.00006857535553439487 -0.00013396752242935068 -0.00019528453905278464 -0.0002525264054046966 -0.0003056931214850867 -0.00035478468729395474
          -0.0003998011028313009 -0.0004407423680971251 -0.00047760848309142735 -0.0005103994478142077 -0.000539115262265466 -0.0005637559264452025
          -0.000584321440353417 -0.0006008118039901094 -0.00061322701735528 -0.0006215670804489287 -0.0006258319932710553 -0.0006260217558216603
          -0.0006221363681007429 -0.0006141758301083039 -0.0006021401418443428 -0.00060214014184512 -0.0005757409363493666 -0.0005508603831547144
          -0.0005274984822611633 -0.0005056552336687136 -0.00048533063737736526 -0.00046652469338711813 -0.0004492374016979722 -0.0004334687623099276
          -0.00041921877522298423 -0.00040648744043714213 -0.0003952747579524013 -0.0003855807277687617 -0.00037740534988622344 -0.0003707486243047864
          -0.0003656105510244506 -0.0003619911300452161 -0.0003598903613670828 -0.0003593082449900509 -0.0003602447809141201 -0.0003626999691392907
          -0.00036269996913851354 -0.00037379624963549573 -0.0003838094787045065 -0.00039273965634554597 -0.000400586782558614 -0.0004073508573437107
          -0.00041303188070083595 -0.00041762985262998987 -0.0004211447731311724 -0.00042357664220438353 -0.00042492545984962327 -0.0004251912260668916
          -0.00042437394085618866 -0.0004224736042175142 -0.0004194902161508685 -0.0004154237766562513 -0.0004102742857336627 -0.00040404174338310285
          -0.0003967261496045715 -0.0003883275043980689 -0.0003788458077635948 -0.00037884580776337273 -0.00037396380150311935 -0.0003692668985976333
          -0.00036475509904691447 -0.000360428402850963 -0.0003562868100097788 -0.00035233032052336185 -0.0003485589343917123 -0.00034497265161482994
          -0.00034157147219271493 -0.00033835539612536714 -0.0003353244234127867 -0.00033247855405497354 -0.00032981778805192763 -0.00032734212540364905
          -0.00032505156611013775 -0.0003229461101713937 -0.000321025757587417 -0.0003192905083582076 -0.0003177403624837655 -0.00031637531996409063
          -0.00031637531996464574 -0.00032085498700895994 -0.0003252899187142155 -0.0003296801150804124 -0.0003340255761075506 -0.00033832630179563006
          -0.00034258229214465083 -0.000346793547154613 -0.0003509600668255164 -0.00035508185115736116 -0.0003591589001501472 -0.0003631912138038745
          -0.00036717879211854324 -0.0003711216350941532 -0.0003750197427307045 -0.0003788731150281971 -0.000382681751986631 -0.00038644565360600625
          -0.00039016481988632276 -0.00039383925082758065 -0.0003974689464297798 -0.0003974689464283365 -0.00040025861561780393 -0.0004023683563253089
          -0.00040379816855085125 -0.0004045480522944311 -0.0004046180075560485 -0.0004040080343357033 -0.00040271813263339563 -0.0004007483024491254
          -0.0003980985437828927 -0.0003947688566346974 -0.00039075924100453964 -0.0003860696968924193 -0.0003807002242983365 -0.00037465082322229114
          -0.0003679214936642833 -0.0003605122356243129 -0.00035242304910237997 -0.00034365393409848457 -0.0003342048906126266 -0.0003240759186448061
          -0.0003240759186451392 -0.0003157620916784603 -0.000308180773263782 -0.0003013319634011041 -0.00029521566209042674 -0.00028983186933174976
          -0.00028518058512507323 -0.0002812618094703973 -0.00027807554236772167 -0.0002756217838170466 -0.000273900533818372 -0.0002729117923716978
          -0.00027265555947702413 -0.0002731318351343509 -0.00027434061934367816 -0.00027628191210500586 -0.000278955713418334 -0.0002823620232836627
          -0.00028650084170099175 -0.00029137216867032134 -0.0002969760041916514 -0.00029697600419154035 -0.0003010611460771262 -0.00030505966520398163
          -0.0003089715615721067 -0.0003127968351815014 -0.00031653548603216564 -0.0003201875141240995 -0.000323752919457303 -0.0003272317020317761
          -0.0003306238618475188 -0.0003339293989045311 -0.00033714831320281303 -0.00034028060474236457 -0.0003433262735231857 -0.0003462853195452764
          -0.00034915774280863676 -0.00035194354331326673 -0.00035464272105916627 -0.00035725527604633543 -0.0003597812082747742 -0.0003622205177444826
          -0.00036222051774414954 -0.0003512678791536744 -0.000341174974527414 -0.0003319418038653682 -0.00032356836716753714 -0.0003160546644339207
          -0.000309400695664519 -0.00030360646085933197 -0.0002986719600183596 -0.00029459719314160195 -0.00029138216022905894 -0.0002890268612807306
          -0.000287531296296617 -0.00028689546527671804 -0.0002871193682210338 -0.0002882030051295642 -0.0002901463760023093 -0.0002929494808392691
          -0.00029661231964044353 -0.0003011348924058327 -0.0003065171991354365 -0.0003065171991358806 -0.0002927320130280764 -0.00028024930071429477
          -0.00026906906219453574 -0.0002591912974687993 -0.0002506160065370855 -0.00024334318939939426 -0.00023737284605572563 -0.00023270497650607956
          -0.00022933958075045611 -0.00022727665878885528 -0.00022651621062127702 -0.00022705823624772137 -0.0002289027356681883 -0.00023204970888267783
          -0.00023649915589118997 -0.00024225107669372472 -0.00024930547129028204 -0.0002576623396808619 -0.0002673216818654644 -0.00027828349784408957
        </DataArray>
        <DataArray type="Float64" Name="base_vector_1" NumberOfComponents="3" format="ascii" RangeMin="0.9999999999999992" RangeMax="1.0000000000000009">
          0.03967161164391919 0.9573456745438818 0.2862087047273277 0.024710783589069196 0.9577942177832507 0.28639066597112733
          0.009775582089722401 0.9580084015259105 0.2865734471310586 -0.005130330248527715 0.9579895795851301 0.28675711868730897
          -0.020003333898945597 0.9577391598548143 0.28694175073265615 -0.03483985307303783 0.9572586031877865 0.28712741293860666
          -0.049636356354322064 0.9565494222707465 0.2873141745221931 -0.06438935730664408 0.9556131804964199 0.2875021042134382
          -0.07909541505721918 0.9544514908334107 0.28769127022349167 -0.09375113485455966 0.9530660146942402 0.2878817402134441
          -0.10835316860148625 0.9514584608020737 0.28807358126382776 -0.1228982153634175 0.9496305840566124 0.2882668598448064
          -0.1373830218521246 0.9475841843996198 0.28846164178706046 -0.15180438288517695 0.9453211056805529 0.2886579922533719
          -0.16615914182127778 0.9428432345227465 0.2888559757109101 -0.18044419097172137 0.9401524991906036 0.28905565590422744
          -0.19465647198819847 0.937250868458228 0.2892570958289621 -0.2087929762271803 0.9341403504799287 0.28946035770625467
          -0.22285074509112301 0.9308229916630184 0.289665502957878 -0.23682687034674643 0.9273008755433184 0.28987259218208355
          -0.250718494420626 0.9235761216637738 0.2900816851301667 -0.2507184944206253 0.9235761216637735 0.2900816851301669
          -0.264568938530817 0.9197289670604585 0.2900032825927643 -0.27835216845682353 0.9156779102869566 0.2899207390441338
          -0.2920651857754324 0.9114241562888125 0.2898343226589785 -0.3057050142114064 0.9069689534660814 0.2897443040590176
          -0.319268700246764 0.9023135932755022 0.2896509562093546 -0.3327533137227745 0.8974594098244244 0.289554554314224
          -0.3461559484345802 0.8924077794566192 0.2894553757121513 -0.3594737227183322 0.8871601203300967 0.2893536997705619
          -0.3727037800307502 0.8817178919870554 0.2892498077798724 -0.385843289521008 0.8760825949160982 0.2891439828470991
          -0.3988894465948438 0.8702557701068362 0.2890365097890178 -0.41183947347082217 0.8642389985970171 0.28892767502491246
          -0.42469061972863753 0.8580339010123064 0.28881776646894414 -0.43744016284938825 0.8516421370988538 0.2887070734221759
          -0.45008540874772796 0.8450654052487789 0.28859588646428824 -0.46262369229581024 0.8383054420187082 0.2884844973450215
          -0.4750523778389608 0.8313640216415019 0.2883731988753768 -0.48736885970297616 0.8242429555313011 0.2882622848186114
          -0.49957056269299627 0.8169440917820354 0.28815204978106373 -0.5116549425838588 0.8094693146595273 0.2880427891028399
          -0.5116549425838595 0.8094693146595278 0.2880427891028399 -0.5236446228775535 0.8017687881752268 0.28803319121145404
          -0.5355152659326374 0.793892132296636 0.288025488855758 -0.5472642977196467 0.7858412150971118 0.2880197442817374
          -0.5588891738643573 0.777617941899621 0.2880160199937055 -0.5703873801794126 0.7692242548022871 0.28801437873122376
          -0.5817564331883176 0.7606621321964736 0.28801488344584325 -0.5929938806416852 0.7519335882775231 0.28801759727767307
          -0.6040973020256555 0.7430406725482801 0.2880225835317862 -0.61506430906236 0.7339854693155181 0.28802990565446757
          -0.6258925462023628 0.7247700971794044 0.2880396272093142 -0.6365796911089667 0.7153967085161242 0.2880518118531959
          -0.6471234551342984 0.7058674889537975 0.2880665233120801 -0.6575215837870796 0.6961846568418186 0.2880838253567364
          -0.6677718571920002 0.6863504627137486 0.2881037817783201 -0.6778720905406055 0.6763671887438962 0.2881264563638491
          -0.6878201345336035 0.6662371481977165 0.2881519128715809 -0.6976138758145338 0.6559626848761684 0.2881802150062942
          -0.7072512373946926 0.645546172554163 0.28821142639449027 -0.7167301790692555 0.6349900144132403 0.28824561055951337
          -0.7260486978245027 0.624296642468613 0.28828283089660633 -0.7260486978245031 0.6242966424686128 0.2882828308966061
          -0.7351996301633466 0.6135038351192238 0.28826124974002876 -0.7441898924798189 0.6025704909303298 0.2882537205152046
          -0.7530172397974912 0.5914989287244117 0.28826039250240787 -0.7616794590797755 0.580291504272985 0.2882814105774733
          -0.7701743698448074 0.5689506098732366 0.2883169151455167 -0.7784998247753516 0.5574786739142863 0.28836704207574815
          -0.7866537103235649 0.5458781604331298 0.2884319226374067 -0.7946339473104413 0.53415156866031 0.2885116834368362
          -0.8024384915197675 0.5223014325553733 0.28860644635573474 -0.8100653342864232 0.5103303203321703 0.2887163284905972
          -0.8175125030788526 0.49824083397406027 0.28884144209338014 -0.8247780620755332 0.48603560873908164 0.28898189451340983
          -0.8318601127352832 0.4737173126551589 0.28913778814056224 -0.838756794361228 0.4612886460054112 0.28930922034973633
          -0.8454662846582579 0.4487523408036362 0.28949628344664496 -0.8519868002838185 0.43611116026004626 0.28969906461495
          -0.8583165973918594 0.42336789823733184 0.28991764586476126 -0.8644539721697673 0.41052537869713446 0.2901521039825259
          -0.870397261368133 0.39758645513701246 0.29040251048232985 -0.8761448428231771 0.3845540100179873 0.2906689315586339
          -0.8761448428231762 0.384554010017987 0.2906689315586338 -0.8816844188325081 0.37140288894176604 0.29101972385680663
          -0.8870286930385758 0.35815877509002425 0.29138014611893076 -0.8921759984462758 0.34482451632095723 0.29174996270849485
          -0.8971247086734229 0.3314029912101622 0.2921289347267449 -0.9018732385290327 0.3178971085032642 0.2925168200812026
          -0.9064200445847708 0.30430980655789397 0.2929133735554584 -0.9107636257393705 0.2906440527750867 0.2933183468802248
          -0.9149025237758246 0.2769028430201709 0.29373148880563343 -0.9188353239111504 0.2630892010332243 0.2941525451747606
          -0.9225606553385588 0.2492061778291743 0.29458125899836635 -0.9260771917617947 0.23525685108762306 0.2950173705308269
          -0.9293836519215017 0.22124432453248588 0.2954606173472478 -0.9324788001133806 0.2071717273015265 0.2959107344217359
          -0.9353614466979794 0.19304221330588528 0.2963674542068143 -0.9380304486019018 0.1788589605796937 0.29683050671396055
          -0.940484709810264 0.16462517061987308 0.29729961959524953 -0.9427231818501998 0.15034406771622183 0.29777451822608064
          -0.9447448642652236 0.13601889827189487 0.2982549257889697 -0.9465488050802766 0.121652930114385 0.2987405633583843
          -0.9481341012572604 0.10724945179711917 0.29923114998660255 -0.9481341012572608 0.10724945179711921 0.29923114998660266
          -0.9495196896103384 0.09282927829155338 0.29965827893478336 -0.9506849219962199 0.07838331944933584 0.30009037692192747
          -0.9516292187003788 0.06391493521194982 0.3005273883900769 -0.952352051031027 0.04942749881397829 0.3009692563335848
          -0.9528529416157405 0.03492439601504477 0.3014159223020821 -0.9531314646867355 0.020409024325418634 0.3018673264038417
          -0.9531872463546769 0.005884792225450436 0.30232340730954455 -0.9530199648708919 -0.008644881621002187 0.3027841022564497
          -0.9526293508778569 -0.023176569158986526 0.3032493470529706 -0.9520151876478398 -0.037706833740538875 0.30371907608366
          -0.9511773113095758 -0.052232230928265524 0.3041932223146062 -0.9501156110628519 -0.06674930930424776 0.30467171729924225
          -0.9488300293808991 -0.08125461128409271 0.30515449118456994 -0.9473205622004579 -0.09574467393595182 0.3056414727178017
          -0.9455872590994283 -0.11021602980432332 0.306132589253421 -0.943630223461974 -0.12466520773845592 0.30662776676066367
          -0.941449612630997 -0.13908873372516722 0.3071269298314216 -0.9390456380478558 -0.15348313172588723 0.30763000168857046
          -0.9364185653792476 -0.16784492451773625 0.3081369041947225 -0.9335687146311458 -0.18217063453844543 0.30864755786140646
          -0.933568714631146 -0.18217063453844543 0.3086475578614065 -0.9304887280292986 -0.1964534384630008 0.30918727905022436
          -0.927184998722121 -0.21069655978069485 0.30973365629398747 -0.923657911916278 -0.22489648984092922 0.3102863687171754
          -0.9199079082203909 -0.23904972097169447 0.31084509212297295 -0.9159354837467553 -0.2531527473450224 0.31140949909285964
          -0.9117411901996451 -0.2672020658460841 0.31197925908771607 -0.9073256349501175 -0.2811941769457315 0.3125540385504235
          -0.9026894810971939 -0.2951255855762814 0.3131335010099303 -0.8978334475153456 -0.3089928020103348 0.3137173071867607
          -0.8927583088881728 -0.3227923427424284 0.31430511509993797 -0.8874648957282081 -0.33652073137330507 0.31489658017529715
          -0.881954094382738 -0.3501744994965948 0.31549135535515843 -0.8762268470255725 -0.3637501875876933 0.316089091209333
          -0.8702841516346831 -0.3772443458946198 0.316689436047433 -0.8641270619556187 -0.39065353533064096 0.3172920360324568
          -0.857756687450649 -0.4039743283684387 0.3178965352956177 -0.8511741932335415 -0.41720330993560273 0.31850257605238813
          -0.8443807999899198 -0.4303370783112235 0.31910979871972583 -0.8373777838831369 -0.44337224602336145 0.31971784203445114
          -0.830166476445604 -0.4563054407471687 0.32032634317274494 -0.830166476445604 -0.4563054407471685 0.3203263431727449
          -0.8227439063314819 -0.46913988444399546 0.32093649436966265 -0.8151183058128524 -0.4818626522606338 0.32154398126093514
          -0.8072913064876754 -0.4944705206168936 0.32214849170884036 -0.7992645919642696 -0.5069602887708149 0.3227497136197056
          -0.791039897565535 -0.5193287796547041 0.323347335046795 -0.7826190100195465 -0.5315728407077053 0.323941044293504
          -0.7740037671365612 -0.5436893447046844 0.3245305300168274 -0.7651960574724614 -0.5556751905812117 0.32511548133107293
          -0.7561978199786785 -0.5675273042544207 0.32569558791178677 -0.7470110436386295 -0.5792426394395287 0.3262705400998598
          -0.7376377670907173 -0.5908181784617996 0.3268400290057843 -0.7280800782379389 -0.6022509330637309 0.32740374661402694
          -0.7183401138441499 -0.6135379452072485 0.32796138588748847 -0.7084200591170386 -0.6246762878706911 0.3285126408720157
          -0.6983221472778789 -0.6356630658403721 0.32905720680093425 -0.6880486591181039 -0.6464954164964951 0.32959478019957045
          -0.6776019225427872 -0.6571705105932157 0.3301250589897283 -0.6669843121010768 -0.6676855530326287 0.3306477425940885
          -0.6561982485036766 -0.6780377836324709 0.3311625320404985 -0.6452461981274329 -0.6882244778873223 0.33166913006611926
          -0.6452461981274333 -0.6882244778873223 0.33166913006611937 -0.6341357511224637 -0.6982483176643379 0.3321462569821768
          -0.622870963768966 -0.7080947240798279 0.33261633186575734 -0.6114547056054986 -0.7177613770049153 0.3330791927948974
          -0.5998898804639992 -0.7272460031114747 0.3335346792692988 -0.5881794257011563 -0.7365463763630126 0.3339826322555914
          -0.5763263114229811 -0.745660318492872 0.3344228942322727 -0.5643335397027718 -0.754585699469674 0.3348553092343056
          -0.5522041437926934 -0.7633204379499104 0.33527972289736696 -0.5399411873291746 -0.7718625017176042 0.3356959825017319
          -0.5275477635323407 -0.7802099081109619 0.33610393701578367 -0.515026994399693 -0.7883607244359438 0.33650343713913533
          -0.5023820298942465 -0.7963130683666757 0.3368943353453524 -0.4896160471273394 -0.804065108332639 0.337276485924264
          -0.47673224953633975 -0.811615063892575 0.33764974502385203 -0.4637338660574495 -0.818961206095038 0.33801397069170475
          -0.45062415029383374 -0.8261018578255437 0.3383690229160253 -0.4374063796792915 -0.8330353941402597 0.3387147636661823
          -0.4240838546376775 -0.839760242586183 0.33905105693279325 -0.4106598977383036 -0.8462748835077623 0.3393777687673266
          -0.3971378528475298 -0.8525778503399203 0.3396947673212147 -0.3971378528475298 -0.8525778503399204 0.3396947673212146
          -0.38349559697109337 -0.8586595763857708 0.34005125934893066 -0.3697570921306992 -0.864530804751453 0.3403912167710186
          -0.35592560003091567 -0.8701899792038968 0.34071449534141507 -0.3420044083429987 -0.8756355933427357 0.3410209558740788
          -0.3279968299420368 -0.880866191037221 0.34131046429248707 -0.31390620213654463 -0.885880366851709 0.3415828916776899
          -0.29973588589070266 -0.8906767664596049 0.341838114314917 -0.28548926503939565 -0.8952540870456258 0.3420760137387135
          -0.27116974549624073 -0.8996110776962656 0.3422964767765908 -0.25678075445476933 -0.9037465397783377 0.34249939559117615
          -0.242325739582955 -0.9076593273054752 0.3426846677208453 -0.22780816821126337 -0.9113483472924763 0.3428521961188247
          -0.21323152651440624 -0.9148125600973767 0.3430018891907446 -0.19859931868699454 -0.9180509797511407 0.34313366083063307
          -0.1839150661132678 -0.9210626742748628 0.3432474304553358 -0.169182306531096 -0.9238467659843711 0.3433431230373443
          -0.1544045931904514 -0.9264024317821362 0.3434206691360268 -0.13958549400652687 -0.9287289034363775 0.3434800049272412
          -0.12472859070772113 -0.9308254678472792 0.34352107223132633 -0.10983747797866394 -0.9326914673002105 0.3435438185394514
          <InformationKey name="L2_NORM_RANGE" location="vtkDataArray" length="2">
            <Value index="0">
              1
            </Value>
            <Value index="1">
              1
            </Value>
          </InformationKey>
        </DataArray>
        <DataArray type="Float64" Name="base_vector_2" NumberOfComponents="3" format="ascii" RangeMin="0.9999999999999994" RangeMax="1.0000000000000007">
          -0.013868424064173823 -0.28587905833621585 0.9581653462836022 -0.00937990675967626 -0.2862433960155846 0.9581110246660591
          -0.004890068883407761 -0.2865379136735988 0.9580564238362465 -0.0004000065346323467 -0.2867628355896503 0.9580015219817536
          0.004089193589269069 -0.2869184029185754 0.9579462973269658 0.008576454423573743 -0.28700487341953096 0.9578907281433302
          0.013060708760385509 -0.2870225211827502 0.9578347927594694 0.017540899466220672 -0.286971636354326 0.9577784695711411
          0.022015979693019827 -0.2868525248591616 0.9577217370510501 0.026484913082617467 -0.28666550812221825 0.9576645737584936
          0.030946673964689253 -0.286410922788201 0.9576069583488493 0.035400247548198815 -0.2860891204398226 0.9575488695829033
          0.039844630106383117 -0.28570046731476584 0.9574902863360079 0.04427882915529735 -0.28524534402148793 0.9574311876070778
          0.04870186362595885 -0.2847241452539817 0.9573715525274127 0.05311276403012333 -0.2841372795056367 0.9573113603693504
          0.057510572619730804 -0.28348516878231056 0.957250590554749 0.06189434354006007 -0.28276824831474556 0.9571892226632917
          0.0662631429766381 -0.2819869662704424 0.957127236440616 0.07061604929593723 -0.28114178346511887 0.95706461180627
          0.07495215317992054 -0.2802331730738663 0.9570013288614843 0.07495215317992071 -0.2802331730738663 0.9570013288614838
          0.07939325019995802 -0.27892510789882063 0.9570253371809536 0.08382126434634607 -0.27753969277684387 0.957050528747942
          0.08823496713439094 -0.2760771097874015 0.9570768098884375 0.09263313315083715 -0.2745375604501419 0.9571040855334093
          0.0970145403573704 -0.272921265668741 0.957132259254185 0.10137797039290708 -0.271228465670061 0.9571612332983821
          0.10572220887459621 -0.26945941993865175 0.9571909086263837 0.11004604569746418 -0.2676144071466233 0.9572211849483447
          0.11434827533263381 -0.2656937250789069 0.957251960761714 0.11862769712404952 -0.263697690553939 0.9572831333892622
          0.12288311558363652 -0.2616266393397906 0.9573145990175989 0.12711334068483116 -0.25948092606577955 0.9573462527361707
          0.13131718815440946 -0.25726092412958756 0.9573779885767222 0.13549347976255477 -0.2549670255999146 0.9574096995532093
          0.13964104361108953 -0.2525996411147078 0.9574412777021508 0.14375871441981286 -0.250159199774991 0.9574726141234007
          0.14784533381087728 -0.2476461490343369 0.957503599021337 0.15189975059113775 -0.24506095458400456 0.9575341217464401
          0.15592082103241373 -0.24240410023379488 0.9575640708372588 0.1599074091495985 -0.23967608778864058 0.95759333406274
          0.15990740914959856 -0.23967608778864102 0.9575933340627406 0.16375759772854115 -0.2370608266001626 0.9575936579143711
          0.1675681816140333 -0.23438442001330984 0.9575932582080932 0.1713382320469049 -0.23164748137564573 0.957592112859834
          0.17506682992724742 -0.22885063803214534 0.9575901996843457 0.17875306602322194 -0.22599453117097656 0.9575874964033879
          0.18239604117737385 -0.22307981566620239 0.9575839806539979 0.18599486651040797 -0.22010715991743313 0.9575796299968258
          0.18954866362238026 -0.21707724568649 0.957574421924551 0.1930565647912627 -0.21399076793109795 0.9575683338703599
          0.1965177131688382 -0.21084843463567005 0.9575613432164952 0.1999312629738833 -0.20765096663921812 0.957553427302867
          0.20329637968259867 -0.20439909746042884 0.9575445634357241 0.2066122402162436 -0.201093573119961 0.9575347288963846
          0.20987803312593845 -0.19773515195999813 0.95752390095002 0.2130929587745925 -0.1943246044611091 0.957512056854494
          0.2162562295159189 -0.19086271305645663 0.9574991738692458 0.21936706987050242 -0.18735027194340526 0.9574852292642237
          0.22242471669887817 -0.18378808689257542 0.9574702003288619 0.2254284193715876 -0.18017697505438734 0.9574540643810955
          0.22837743993617685 -0.17651776476314152 0.9574367987764115 0.22837743993617676 -0.1765177647631413 0.9574367987764115
          0.23131840519178895 -0.17265761352305442 0.9574346682213106 0.23421125335187923 -0.16875120616580208 0.9574278663277611
          0.23705523755297112 -0.1647991649427698 0.9574163407749373 0.23984961827776807 -0.16080212435415575 0.9574000404299137
          0.2425936635548263 -0.15676073107335897 0.9573789153707086 0.24528664915777385 -0.1526756438681267 0.9573529169091222
          0.24792785880403345 -0.1485475335184565 0.957321997613358 0.25051658435299634 -0.14437708273124272 0.9572861113304237
          0.2530521260035926 -0.14016498605167027 0.9572452132082968 0.25553379249121344 -0.13591194977135257 0.9571992597178538
          0.25796090128392923 -0.13161869183320518 0.9571482086745499 0.26033277877795186 -0.12728594173306207 0.9570920192598401
          0.26264876049229263 -0.12291444041802868 0.9570306520423394 0.26490819126256027 -0.1185049401815752 0.9569640689987062
          0.2671104254338477 -0.11405820455536775 0.9568922335342447 0.2692548270526568 -0.10957500819784527 0.9568151105032183
          0.27134077005780527 -0.10505613677953907 0.9567326662288669 0.2733676384702658 -0.10050238686514001 0.956644868523111
          0.27533482658188096 -0.09591456579232416 0.956551686705949 0.27724173914290495 -0.09129349154733002 0.9564530916245271
          0.2772417391429049 -0.09129349154732957 0.9564530916245266 0.27910112490819866 -0.08678541864074152 0.956331978544234
          0.28089255246235956 -0.08225469960402854 0.9562078949497497 0.282615654802685 -0.07770233686685324 0.9560809267556168
          0.2842700796621172 -0.07312933935633104 0.9559511606427391 0.2858554896326298 -0.06853672228607888 0.9558186840322649
          0.2873715622856443 -0.06392550694291965 0.9556835850591966 0.28881799028943117 -0.05929672047127332 0.9555459525457295
          0.2901944815234505 -0.05465139565527921 0.9554058759743245 0.29150075918958906 -0.04999057069868473 0.9552634454605242
          0.29273656192024966 -0.04531528900255566 0.9551187517255258 0.29390164388324924 -0.0406265989408241 0.954971886068498
          0.29499577488348516 -0.03592555363374639 0.9548229403386792 0.29601874046132376 -0.031213210719292617 0.9546720069072331
          0.29697034198767425 -0.026490632122526003 0.9545191786388959 0.29785039675570385 -0.02175888382300517 0.9543645488634029
          0.29865873806915516 -0.017019035620268408 0.9542082113467141 0.29939521532722524 -0.012272160897439433 0.9540502602620426
          0.3000596941059689 -0.007519336382997954 0.9538907901606932 0.3006520562361848 -0.002761641910774326 0.9537298959427195
          0.3011721998777508 0.0019998398217881963 0.9535676728274105 0.30117219987775096 0.0019998398217881963 0.9535676728274106
          0.30155938735506427 0.006846288600229733 0.9534228150356173 0.30187318137585517 0.011702071319437568 0.9532762683990694
          0.30211336284239065 0.01656607386178699 0.9531280507827207 0.30227972946851345 0.021437177069431046 0.9529781805433619
          0.30237209589089836 0.026314256995023433 0.952826676529024 0.3023902937766576 0.031196185154786282 0.9526735580782408
          0.30233417192725154 0.03608182878387112 0.9525188450191813 0.30220359637865596 0.04097005109395502 0.9523625576686464
          0.30199845049774143 0.04585971153302559 0.9522047168309299 0.301718635074818 0.05074966604729747 0.9520453437965425
          0.30136406841230196 0.055638767345206785 0.9518844603407978 0.3009346864094595 0.06052586516343017 0.9517220887222585
          0.3004304426431858 0.0654098065348675 0.951558251681047 0.29985130844477625 0.07028943605853366 0.9513929724370098
          0.2991972729726477 0.07516359617130297 0.9512262746877468 0.2984683432809701 0.08003112742144547 0.9510581826064929
          0.297664544384169 0.08489086874388974 0.950888720839864 0.29678591931725706 0.08974165773716813 0.950717914505452
          0.2958325291919598 0.09458233094196167 0.9505457891892813 0.29480445324859605 0.09941172412119603 0.9503723709431201
          0.2948044532485961 0.09941172412119581 0.9503723709431203 0.29373737335164823 0.10418630530825945 0.9501913329865139
          0.29260236558811253 0.10893903940685068 0.9500084954069379 0.2913997556338703 0.11366890930346141 0.9498239634133698
          0.2901298846998038 0.11837490238110315 0.9496378428065843 0.2887931094803628 0.12305601075718531 0.9494502399458284
          0.2873898020984219 0.12771123152093045 0.9492612617152548 0.2859203500464254 0.13233956697026017 0.9490710154901234
          0.28438515612382004 0.13694002484811185 0.9488796091027719 0.2827846383707772 0.1415116185781119 0.9486871508083747
          0.28111922999820615 0.14605336749955955 0.9484937492504916 0.2793893793140607 0.15056429710165598 0.9482995134264219
          0.2775955496459432 0.15504343925692965 0.9481045526523695 0.27573821926001085 0.1594898324537899 0.9479089765284324
          0.27381788127618883 0.16390252202815836 0.947712894903424 0.27183504357969757 0.16828056039412043 0.9475164178395352
          0.2697902287289008 0.1726230072735313 0.9473196555768542 0.26768397385948306 0.17692892992453024 0.9471227184977437
          0.26551683058496567 0.18119740336889412 0.9469257170910954 0.2632893648935699 0.18542751061818197 0.946728761916466
          0.2610021570414426 0.18961834289860136 0.9465319635681105 0.26100215704144236 0.1896183428986017 0.9465319635681105
          0.25865805271737674 0.19376764597262264 0.9463350945297777 0.2562529874264691 0.19787568788699994 0.9461393230271409
          0.25378761789418797 0.201941533971967 0.9459447456699798 0.2512626155124478 0.20596425976432786 0.945751458759423
          0.24867866618580425 0.2099429512384302 0.9455595582560348 0.2460364701739088 0.21387670503488065 0.9453691397479538
          0.24333674193025673 0.2177646286869308 0.9451802984190958 0.24058020993725882 0.2216058408444883 0.9449931290174294
          0.23776761653767167 0.22539947149568218 0.9448077258233348 0.2348997177624208 0.22914466218592866 0.9446241826180567