<?xml version="1.0"?>
<VTKFile type="UnstructuredGrid" version="0.1" byte_order="LittleEndian" header_type="UInt32" compressor="vtkZLibDataCompressor">
  <UnstructuredGrid>
    <Piece NumberOfPoints="440" NumberOfCells="204">
      <PointData Scalars="RegionId">
        <DataArray type="Float64" Name="node_value" format="ascii" RangeMin="0.5" RangeMax="1">
          1 0.5 0.5 1 1 1
          0.5 0.5 1 1 0.5 0.5
          1 1 0.5 0.5 1 1
          0.5 0.5 1 1 0.5 0.5
          1 1 0.5 0.5 1 1
          0.5 0.5 1 1 0.5 0.5
          1 1 0.5 0.5 1 1
          1 0.5 0.5 1 1 1
          0.5 0.5 1 1 0.5 0.5
          1 1 0.5 0.5 1 1
          0.5 0.5 1 1 0.5 0.5
          1 1 0.5 0.5 1 1
          0.5 0.5 1 1 0.5 0.5
          1 1 0.5 0.5 1 1
          1 0.5 0.5 1 1 1
          0.5 0.5 1 1 0.5 0.5
          1 1 0.5 0.5 1 1
          0.5 0.5 1 1 0.5 0.5
          1 1 0.5 0.5 1 1
          0.5 0.5 1 1 0.5 0.5
          1 1 0.5 0.5 1 1
          1 0.5 0.5 1 1 1
          0.5 0.5 1 1 0.5 0.5
          1 1 0.5 0.5 1 1
          0.5 0.5 1 1 0.5 0.5
          1 1 0.5 0.5 1 1
          0.5 0.5 1 1 0.5 0.5
          1 1 0.5 0.5 1 1
          1 0.5 0.5 1 1 1
          0.5 0.5 1 1 0.5 0.5
          1 1 0.5 0.5 1 1
          0.5 0.5 1 1 0.5 0.5
          1 1 0.5 0.5 1 1
          0.5 0.5 1 1 0.5 0.5
          1 1 0.5 0.5 1 1
          1 0.5 0.5 1 1 1
          0.5 0.5 1 1 0.5 0.5
          1 1 0.5 0.5 1 1
          0.5 0.5 1 1 0.5 0.5
          1 1 0.5 0.5 1 1
          0.5 0.5 1 1 0.5 0.5
          1 1 0.5 0.5 1 1
          1 0.5 0.5 1 1 1
          0.5 0.5 1 1 0.5 0.5
          1 1 0.5 0.5 1 1
          0.5 0.5 1 1 0.5 0.5
          1 1 0.5 0.5 1 1
          0.5 0.5 1 1 0.5 0.5
          1 1 0.5 0.5 1 1
          1 0.5 0.5 1 1 1
          0.5 0.5 1 1 0.5 0.5
          1 1 0.5 0.5 1 1
          0.5 0.5 1 1 0.5 0.5
          1 1 0.5 0.5 1 1
          0.5 0.5 1 1 0.5 0.5
          1 1 0.5 0.5 1 1
          1 1 1 1 1 1
          1 1 1 1 1 1
          1 1 1 1 1 1
          1 1 1 0.5 0.5 1
          1 1 0.5 0.5 1 1
          0.5 0.5 1 1 0.5 0.5
          1 1 0.5 0.5 1 1
          0.5 0.5 1 1 0.5 0.5
          1 1 0.5 0.5 1 1
          0.5 0.5 1 1 0.5 0.5
          1 1 1 0.5 0.5 1
          1 1 0.5 0.5 1 1
          0.5 0.5 1 1 0.5 0.5
          1 1 0.5 0.5 1 1
          0.5 0.5 1 1 0.5 0.5
          1 1 0.5 0.5 1 1
          0.5 0.5 1 1 0.5 0.5
          1 1
        </DataArray>
        <DataArray type="Int64" IdType="1" Name="vtkOriginalPointIds" format="ascii" RangeMin="0" RangeMax="209">
          1 6 7 2 11 12
          16 17 21 22 26 27
          31 32 36 37 41 42
          46 47 51 52 56 57
          61 62 66 67 71 72
          76 77 81 82 86 87
          91 92 96 97 101 102
          106 111 112 107 116 117
          121 122 126 127 131 132
          136 137 141 142 146 147
          151 152 156 157 161 162
          166 167 171 172 176 177
          181 182 186 187 191 192
          196 197 201 202 206 207
          2 7 8 3 12 13
          17 18 22 23 27 28
          32 33 37 38 42 43
          47 48 52 53 57 58
          62 63 67 68 72 73
          77 78 82 83 87 88
          92 93 97 98 102 103
          107 112 113 108 117 118
          122 123 127 128 132 133
          137 138 142 143 147 148
          152 153 157 158 162 163
          167 168 172 173 177 178
          182 183 187 188 192 193
          197 198 202 203 207 208
          3 8 9 4 13 14
          18 19 23 24 28 29
          33 34 38 39 43 44
          48 49 53 54 58 59
          63 64 68 69 73 74
          78 79 83 84 88 89
          93 94 98 99 103 104
          108 113 114 109 118 119
          123 124 128 129 133 134
          138 139 143 144 148 149
          153 154 158 159 163 164
          168 169 173 174 178 179
          183 184 188 189 193 194
          198 199 203 204 208 209
          4 9 5 0 14 10
          19 15 24 20 29 25
          34 30 39 35 44 40
          49 45 54 50 59 55
          64 60 69 65 74 70
          79 75 84 80 89 85
          94 90 99 95 104 100
          109 114 110 105 119 115
          124 120 129 125 134 130
          139 135 144 140 149 145
          154 150 159 155 164 160
          169 165 174 170 179 175
          184 180 189 185 194 190
          199 195 204 200 209 205
          4 3 2 1 0 104
          103 102 101 100 109 108
          107 106 105 209 208 207
          206 205 0 5 6 1
          10 11 15 16 20 21
          25 26 30 31 35 36
          40 41 45 46 50 51
          55 56 60 61 65 66
          70 71 75 76 80 81
          85 86 90 91 95 96
          100 101 105 110 111 106
          115 116 120 121 125 126
          130 131 135 136 140 141
          145 146 150 151 155 156
          160 161 165 166 170 171
          175 176 180 181 185 186
          190 191 195 196 200 201
          205 206
        </DataArray>
        <DataArray type="Int64" IdType="1" Name="RegionId" format="ascii" RangeMin="0" RangeMax="13">
          9 9 9 9 9 9
          9 9 9 9 9 9
          9 9 9 9 9 9
          9 9 9 9 9 9
          9 9 9 9 9 9
          9 9 9 9 9 9
          9 9 9 9 9 9
          8 8 8 8 8 8
          8 8 8 8 8 8
          8 8 8 8 8 8
          8 8 8 8 8 8
          8 8 8 8 8 8
          8 8 8 8 8 8
          8 8 8 8 8 8
          7 7 7 7 7 7
          7 7 7 7 7 7
          7 7 7 7 7 7
          7 7 7 7 7 7
          7 7 7 7 7 7
          7 7 7 7 7 7
          7 7 7 7 7 7
          6 6 6 6 6 6
          6 6 6 6 6 6
          6 6 6 6 6 6
          6 6 6 6 6 6
          6 6 6 6 6 6
          6 6 6 6 6 6
          6 6 6 6 6 6
          5 5 5 5 5 5
          5 5 5 5 5 5
          5 5 5 5 5 5
          5 5 5 5 5 5
          5 5 5 5 5 5
          5 5 5 5 5 5
          5 5 5 5 5 5
          4 4 4 4 4 4
          4 4 4 4 4 4
          4 4 4 4 4 4
          4 4 4 4 4 4
          4 4 4 4 4 4
          4 4 4 4 4 4
          4 4 4 4 4 4
          3 3 3 3 3 3
          3 3 3 3 3 3
          3 3 3 3 3 3
          3 3 3 3 3 3
          3 3 3 3 3 3
          3 3 3 3 3 3
          3 3 3 3 3 3
          2 2 2 2 2 2
          2 2 2 2 2 2
          2 2 2 2 2 2
          2 2 2 2 2 2
          2 2 2 2 2 2
          2 2 2 2 2 2
          2 2 2 2 2 2
          13 13 13 13 13 12
          12 12 12 12 11 11
          11 11 11 10 10 10
          10 10 1 1 1 1
          1 1 1 1 1 1
          1 1 1 1 1 1
          1 1 1 1 1 1
          1 1 1 1 1 1
          1 1 1 1 1 1
          1 1 1 1 1 1
          1 1 0 0 0 0
          0 0 0 0 0 0
          0 0 0 0 0 0
          0 0 0 0 0 0
          0 0 0 0 0 0
          0 0 0 0 0 0
          0 0 0 0 0 0
          0 0
        </DataArray>
      </PointData>
      <CellData Scalars="RegionId">
        <DataArray type="Int64" IdType="1" Name="vtkOriginalCellIds" format="ascii" RangeMin="0" RangeMax="199">
          1 6 11 16 21 26
          31 36 41 46 51 56
          61 66 71 76 81 86
          91 96 101 106 111 116
          121 126 131 136 141 146
          151 156 161 166 171 176
          181 186 191 196 2 7
          12 17 22 27 32 37
          42 47 52 57 62 67
          72 77 82 87 92 97
          102 107 112 117 122 127
          132 137 142 147 152 157
          162 167 172 177 182 187
          192 197 3 8 13 18
          23 28 33 38 43 48
          53 58 63 68 73 78
          83 88 93 98 103 108
          113 118 123 128 133 138
          143 148 153 158 163 168
          173 178 183 188 193 198
          4 9 14 19 24 29
          34 39 44 49 54 59
          64 69 74 79 84 89
          94 99 104 109 114 119
          124 129 134 139 144 149
          154 159 164 169 174 179
          184 189 194 199 0 1
          2 3 0 5 10 15
          20 25 30 35 40 45
          50 55 60 65 70 75
          80 85 90 95 100 105
          110 115 120 125 130 135
          140 145 150 155 160 165
          170 175 180 185 190 195
        </DataArray>
        <DataArray type="Int64" IdType="1" Name="RegionId" format="ascii" RangeMin="0" RangeMax="13">
          9 9 9 9 9 9
          9 9 9 9 9 9
          9 9 9 9 9 9
          9 9 8 8 8 8
          8 8 8 8 8 8
          8 8 8 8 8 8
          8 8 8 8 7 7
          7 7 7 7 7 7
          7 7 7 7 7 7
          7 7 7 7 7 7
          6 6 6 6 6 6
          6 6 6 6 6 6
          6 6 6 6 6 6
          6 6 5 5 5 5
          5 5 5 5 5 5
          5 5 5 5 5 5
          5 5 5 5 4 4
          4 4 4 4 4 4
          4 4 4 4 4 4
          4 4 4 4 4 4
          3 3 3 3 3 3
          3 3 3 3 3 3
          3 3 3 3 3 3
          3 3 2 2 2 2
          2 2 2 2 2 2
          2 2 2 2 2 2
          2 2 2 2 13 12
          11 10 1 1 1 1
          1 1 1 1 1 1
          1 1 1 1 1 1
          1 1 1 1 0 0
          0 0 0 0 0 0
          0 0 0 0 0 0
          0 0 0 0 0 0
        </DataArray>
      </CellData>
      <Points>
        <DataArray type="Float32" Name="Points" NumberOfComponents="3" format="ascii" RangeMin="1.9056620133122473" RangeMax="6.117553878614272">
          4 -0.30331448 0.9528905 3.904243 0.30127105 1.1485023
          4.859905 0.5812125 1.2398459 5 -0.30331448 0.9528905
          3.6386518 0.8225232 1.3353783 4.4668236 1.3526776 1.517224
          3.243886 1.2172891 1.5136392 3.8771625 1.9423387 1.7843121
          2.7697165 1.4588904 1.6834852 3.1643028 2.305559 2.0404925
          2.2690337 1.5381908 1.8451941 2.409107 2.4251702 2.2852478
          1.7922077 1.462669 1.9991187 1.6901895 2.3113048 2.5181656
          1.3824054 1.2538643 2.145683 1.0752099 1.997957 2.7389429
          1.0722531 0.943712 2.2853796 0.61421674 1.5369638 2.947388
          0.88201547 0.57034975 2.4187636 0.33572245 0.9903881 3.1434236
          0.81923044 0.17394008 2.546449 0.24576592 0.42242453 3.3270857
          0.8795725 -0.20704514 2.669101 0.3297895 -0.1080798 3.4985254
          1.0486059 -0.5387918 2.787433 0.556788 -0.5535894 3.6580052
          1.3040524 -0.7942382 2.902196 0.88492465 -0.881726 3.8058982
          1.6182386 -0.9543241 3.0141761 1.2676942 -1.076757 3.9426851
          1.9604712 -1.0085284 3.1241834 1.6597434 -1.1388514 4.0689473
          2.2991984 -0.9548793 3.2330472 2.0216198 -1.0815358 4.1853647
          2.6039274 -0.79961216 3.3416066 2.3229823 -0.927984 4.292706
          2.8469415 -0.55659795 3.4507034 2.5441048 -0.70686126 4.3918257
          3.0049033 -0.2465806 3.5611758 2.6758008 -0.44839326 4.4836526
          3.060401 0.10381755 3.6738474 2.718124 -0.18117645 4.5691824
          2 -0.30331448 0.9528905 1.9042431 0.30127105 1.1485023
          2.8599048 0.5812125 1.2398459 3 -0.30331448 0.9528905
          1.6386518 0.8225232 1.3353783 2.4668236 1.3526776 1.517224
          1.243886 1.2172891 1.5136392 1.8771625 1.9423387 1.7843121
          0.7697166 1.4588904 1.6834852 1.164303 2.305559 2.0404925
          0.26903364 1.5381908 1.8451941 0.40910706 2.4251702 2.2852478
          -0.2077923 1.462669 1.9991187 -0.30981052 2.3113048 2.5181656
          -0.61759466 1.2538643 2.145683 -0.9247901 1.997957 2.7389429
          -0.9277469 0.943712 2.2853796 -1.3857832 1.5369638 2.947388
          -1.1179845 0.57034975 2.4187636 -1.6642776 0.9903881 3.1434236
          -1.1807696 0.17394008 2.546449 -1.7542341 0.42242453 3.3270857
          -1.1204275 -0.20704514 2.669101 -1.6702105 -0.1080798 3.4985254
          -0.9513941 -0.5387918 2.787433 -1.4432119 -0.5535894 3.6580052
          -0.69594765 -0.7942382 2.902196 -1.1150753 -0.881726 3.8058982
          -0.3817615 -0.9543241 3.0141761 -0.73230577 -1.076757 3.9426851
          -0.039528843 -1.0085284 3.1241834 -0.3402565 -1.1388514 4.0689473
          0.2991985 -0.9548793 3.2330472 0.021619853 -1.0815358 4.1853647
          0.6039273 -0.79961216 3.3416066 0.32298222 -0.927984 4.292706
          0.84694153 -0.55659795 3.4507034 0.54410493 -0.70686126 4.3918257
          1.0049033 -0.2465806 3.5611758 0.675801 -0.44839326 4.4836526
          1.0604008 0.10381755 3.6738474 0.7181239 -0.18117645 4.5691824
          5 -0.30331448 0.9528905 4.859905 0.5812125 1.2398459
          4.8577747 0.89797544 0.29134348 5 0 0
          4.4668236 1.3526776 1.517224 4.4462056 1.7057248 0.58184564
          3.8771625 1.9423387 1.7843121 3.808847 2.3430836 0.870673
          3.1643028 2.305559 2.0404925 3.0126202 2.7487814 1.1570073
          2.409107 2.4251702 2.2852478 2.1400733 2.8869793 1.4400536
          1.6901895 2.3113048 2.5181656 1.2799478 2.7507489 1.719047
          1.0752099 1.997957 2.7389429 0.5172341 2.3621268 1.9932595
          0.61421674 1.5369638 2.947388 -0.07607035 1.7688223 2.2620084
          0.33572245 0.9903881 3.1434236 -0.4484061 1.0380723 2.5246596
          0.24576592 0.42242453 3.3270857 -0.5734645 0.24848445 2.7806368
          0.3297895 -0.1080798 3.4985254 -0.45189607 -0.51906866 3.0294242
          0.556788 -0.5535894 3.6580052 -0.10985188 -1.190368 3.2705724
          0.88492465 -0.881726 3.8058982 0.40530184 -1.7055218 3.5037022
          1.2676942 -1.076757 3.9426851 1.0314218 -2.024546 3.728509
          1.6597434 -1.1388514 4.0689473 1.6992723 -2.130323 3.944764
          2.0216198 -1.0815358 4.1853647 2.3404553 -2.0287695 4.1523175
          2.3229823 -0.927984 4.292706 2.8946254 -1.7464058 4.3511
          2.5441048 -0.70686126 4.3918257 3.3151972 -1.3258338 4.541122
          2.6758008 -0.44839326 4.4836526 3.5730107 -0.8198467 4.7224765
          2.718124 -0.18117645 4.5691824 3.657723 -0.284994 4.895335
          3 -0.30331448 0.9528905 2.8599048 0.5812125 1.2398459
          2.8577747 0.89797544 0.29134348 3 0 0
          2.4668236 1.3526776 1.517224 2.4462059 1.7057248 0.58184564
          1.8771625 1.9423387 1.7843121 1.808847 2.3430836 0.870673
          1.164303 2.305559 2.0404925 1.0126203 2.7487814 1.1570073
          0.40910706 2.4251702 2.2852478 0.14007342 2.8869793 1.4400536
          -0.30981052 2.3113048 2.5181656 -0.72005224 2.7507489 1.719047
          -0.9247901 1.997957 2.7389429 -1.4827659 2.3621268 1.9932595
          -1.3857832 1.5369638 2.947388 -2.0760703 1.7688223 2.2620084
          -1.6642776 0.9903881 3.1434236 -2.4484062 1.0380723 2.5246596
          -1.7542341 0.42242453 3.3270857 -2.5734644 0.24848445 2.7806368
          -1.6702105 -0.1080798 3.4985254 -2.4518962 -0.51906866 3.0294242
          -1.4432119 -0.5535894 3.6580052 -2.1098518 -1.190368 3.2705724
          -1.1150753 -0.881726 3.8058982 -1.5946982 -1.7055218 3.5037022
          -0.73230577 -1.076757 3.9426851 -0.9685783 -2.024546 3.728509
          -0.3402565 -1.1388514 4.0689473 -0.3007277 -2.130323 3.944764
          0.021619853 -1.0815358 4.1853647 0.34045535 -2.0287695 4.1523175
          0.32298222 -0.927984 4.292706 0.89462537 -1.7464058 4.3511
          0.54410493 -0.70686126 4.3918257 1.3151973 -1.3258338 4.541122
          0.675801 -0.44839326 4.4836526 1.5730108 -0.8198467 4.7224765
          0.7181239 -0.18117645 4.5691824 1.6577231 -0.284994 4.895335
          5 0 0 4.8577747 0.89797544 0.29134348
          4.1903024 0.4802824 0.8913547 4.3 -0.21232013 0.66702336
          4.4462056 1.7057248 0.58184564 3.880918 1.0874836 1.1093185
          3.808847 2.3430836 0.870673 3.4133742 1.5550275 1.3207493
          3.0126202 2.7487814 1.1570073 2.8425877 1.8458577 1.5255419
          2.1400733 2.8869793 1.4400536 2.2303455 1.9428273 1.723652
          1.2799478 2.7507489 1.719047 1.6385298 1.849093 1.9150972
          0.5172341 2.3621268 1.9932595 1.122854 1.5863429 2.099956
          -0.07607035 1.7688223 2.2620084 0.7277561 1.1912451 2.2783682
          -0.4484061 1.0380723 2.5246596 0.482889 0.71066654 2.4505324
          -0.5734645 0.24848445 2.7806368 0.40142193 0.19630338 2.6167052
          -0.45189607 -0.51906866 3.0294242 0.48013192 -0.3006522 2.777198
          -0.10985188 -1.190368 3.2705724 0.7010686 -0.7342647 2.9323747
          0.40530184 -1.7055218 3.5037022 1.0344272 -1.0676233 3.0826478
          1.0314218 -2.024546 3.728509 1.4421935 -1.2753906 3.2284758
          1.6992723 -2.130323 3.944764 1.8821115 -1.3450668 3.3703575
          2.3404553 -2.0287695 4.1523175 2.3115754 -1.2770464 3.5088282
          2.8946254 -1.7464058 4.3511 2.6911368 -1.0836502 3.6444545
          3.3151972 -1.3258338 4.541122 2.9874182 -0.7873687 3.7778292
          3.5730107 -0.8198467 4.7224765 3.1753354 -0.41856042 3.909566
          3.657723 -0.284994 4.895335 3.2395976 -0.0128259165 4.0402937
          3 0 0 2.8577747 0.89797544 0.29134348
          2.1903026 0.4802824 0.8913547 2.3 -0.21232013 0.66702336
          2.4462059 1.7057248 0.58184564 1.880918 1.0874836 1.1093185
          1.808847 2.3430836 0.870673 1.4133743 1.5550275 1.3207493
          1.0126203 2.7487814 1.1570073 0.8425877 1.8458577 1.5255419
          0.14007342 2.8869793 1.4400536 0.23034558 1.9428273 1.723652
          -0.72005224 2.7507489 1.719047 -0.36147028 1.849093 1.9150972
          -1.4827659 2.3621268 1.9932595 -0.877146 1.5863429 2.099956
          -2.0760703 1.7688223 2.2620084 -1.272244 1.1912451 2.2783682
          -2.4484062 1.0380723 2.5246596 -1.517111 0.71066654 2.4505324
          -2.5734644 0.24848445 2.7806368 -1.5985781 0.19630338 2.6167052
          -2.4518962 -0.51906866 3.0294242 -1.519868 -0.3006522 2.777198
          -2.1098518 -1.190368 3.2705724 -1.2989315 -0.7342647 2.9323747
          -1.5946982 -1.7055218 3.5037022 -0.96557283 -1.0676233 3.0826478
          -0.9685783 -2.024546 3.728509 -0.5578065 -1.2753906 3.2284758
          -0.3007277 -2.130323 3.944764 -0.117888495 -1.3450668 3.3703575
          0.34045535 -2.0287695 4.1523175 0.31157556 -1.2770464 3.5088282
          0.89462537 -1.7464058 4.3511 0.6911367 -1.0836502 3.6444545
          1.3151973 -1.3258338 4.541122 0.9874183 -0.7873687 3.7778292
          1.5730108 -0.8198467 4.7224765 1.1753355 -0.41856042 3.909566
          1.6577231 -0.284994 4.895335 1.2395976 -0.0128259165 4.0402937
          4.3 -0.21232013 0.66702336 4.1903024 0.4802824 0.8913547
          3.902113 0.618034 0.2 4 0 0
          3.880918 1.0874836 1.1093185 3.618034 1.1755705 0.4
          3.4133742 1.5550275 1.3207493 3.1755705 1.618034 0.6
          2.8425877 1.8458577 1.5255419 2.618034 1.9021131 0.8
          2.2303455 1.9428273 1.723652 2 2 1
          1.6385298 1.849093 1.9150972 1.381966 1.9021131 1.2
          1.122854 1.5863429 2.099956 0.8244295 1.618034 1.4
          0.7277561 1.1912451 2.2783682 0.381966 1.1755705 1.6
          0.482889 0.71066654 2.4505324 0.09788692 0.618034 1.8
          0.40142193 0.19630338 2.6167052 0 2.0212862e-15 2
          0.48013192 -0.3006522 2.777198 0.09788692 -0.618034 2.2
          0.7010686 -0.7342647 2.9323747 0.381966 -1.1755705 2.4
          1.0344272 -1.0676233 3.0826478 0.8244295 -1.618034 2.6
          1.4421935 -1.2753906 3.2284758 1.381966 -1.9021131 2.8
          1.8821115 -1.3450668 3.3703575 2 -2 3
          2.3115754 -1.2770464 3.5088282 2.618034 -1.9021131 3.2
          2.6911368 -1.0836502 3.6444545 3.1755705 -1.618034 3.4
          2.9874182 -0.7873687 3.7778292 3.618034 -1.1755705 3.6
          3.1753354 -0.41856042 3.909566 3.902113 -0.618034 3.8
          3.2395976 -0.0128259165 4.0402937 4 -5.818929e-15 4
          2.3 -0.21232013 0.66702336 2.1903026 0.4802824 0.8913547
          1.9021131 0.618034 0.2 2 0 0
          1.880918 1.0874836 1.1093185 1.618034 1.1755705 0.4
          1.4133743 1.5550275 1.3207493 1.1755705 1.618034 0.6
          0.8425877 1.8458577 1.5255419 0.618034 1.9021131 0.8
          0.23034558 1.9428273 1.723652 5.6655387e-16 2 1
          -0.36147028 1.849093 1.9150972 -0.618034 1.9021131 1.2
          -0.877146 1.5863429 2.099956 -1.1755705 1.618034 1.4
          -1.272244 1.1912451 2.2783682 -1.618034 1.1755705 1.6
          -1.517111 0.71066654 2.4505324 -1.9021131 0.618034 1.8
          -1.5985781 0.19630338 2.6167052 -2 2.0212862e-15 2
          -1.519868 -0.3006522 2.777198 -1.9021131 -0.618034 2.2
          -1.2989315 -0.7342647 2.9323747 -1.618034 -1.1755705 2.4
          -0.96557283 -1.0676233 3.0826478 -1.1755705 -1.618034 2.6
          -0.5578065 -1.2753906 3.2284758 -0.618034 -1.9021131 2.8
          -0.117888495 -1.3450668 3.3703575 -2.1437508e-15 -2 3
          0.31157556 -1.2770464 3.5088282 0.618034 -1.9021131 3.2
          0.6911367 -1.0836502 3.6444545 1.1755705 -1.618034 3.4
          0.9874183 -0.7873687 3.7778292 1.618034 -1.1755705 3.6
          1.1753355 -0.41856042 3.909566 1.9021131 -0.618034 3.8
          1.2395976 -0.0128259165 4.0402937 2 -5.818929e-15 4
          4.3 -0.21232013 0.66702336 5 0 0
          5 -0.30331448 0.9528905 4 -0.30331448 0.9528905
          4 0 0 3.2395976 -0.0128259165 4.0402937
          3.657723 -0.284994 4.895335 2.718124 -0.18117645 4.5691824
          3.060401 0.10381755 3.6738474 4 -5.818929e-15 4
          2.3 -0.21232013 0.66702336 3 0 0
          3 -0.30331448 0.9528905 2 -0.30331448 0.9528905
          2 0 0 1.2395976 -0.0128259165 4.0402937
          1.6577231 -0.284994 4.895335 0.7181239 -0.18117645 4.5691824
          1.0604008 0.10381755 3.6738474 2 -5.818929e-15 4
          4 0 0 3.902113 0.618034 0.2
          3.904243 0.30127105 1.1485023 4 -0.30331448 0.9528905
          3.618034 1.1755705 0.4 3.6386518 0.8225232 1.3353783
          3.1755705 1.618034 0.6 3.243886 1.2172891 1.5136392
          2.618034 1.9021131 0.8 2.7697165 1.4588904 1.6834852
          2 2 1 2.2690337 1.5381908 1.8451941
          1.381966 1.9021131 1.2 1.7922077 1.462669 1.9991187
          0.8244295 1.618034 1.4 1.3824054 1.2538643 2.145683
          0.381966 1.1755705 1.6 1.0722531 0.943712 2.2853796
          0.09788692 0.618034 1.8 0.88201547 0.57034975 2.4187636
          0 2.0212862e-15 2 0.81923044 0.17394008 2.546449
          0.09788692 -0.618034 2.2 0.8795725 -0.20704514 2.669101
          0.381966 -1.1755705 2.4 1.0486059 -0.5387918 2.787433
          0.8244295 -1.618034 2.6 1.3040524 -0.7942382 2.902196
          1.381966 -1.9021131 2.8 1.6182386 -0.9543241 3.0141761
          2 -2 3 1.9604712 -1.0085284 3.1241834
          2.618034 -1.9021131 3.2 2.2991984 -0.9548793 3.2330472
          3.1755705 -1.618034 3.4 2.6039274 -0.79961216 3.3416066
          3.618034 -1.1755705 3.6 2.8469415 -0.55659795 3.4507034
          3.902113 -0.618034 3.8 3.0049033 -0.2465806 3.5611758
          4 -5.818929e-15 4 3.060401 0.10381755 3.6738474
          2 0 0 1.9021131 0.618034 0.2
          1.9042431 0.30127105 1.1485023 2 -0.30331448 0.9528905
          1.618034 1.1755705 0.4 1.6386518 0.8225232 1.3353783
          1.1755705 1.618034 0.6 1.243886 1.2172891 1.5136392
          0.618034 1.9021131 0.8 0.7697166 1.4588904 1.6834852
          5.6655387e-16 2 1 0.26903364 1.5381908 1.8451941
          -0.618034 1.9021131 1.2 -0.2077923 1.462669 1.9991187
          -1.1755705 1.618034 1.4 -0.61759466 1.2538643 2.145683
          -1.618034 1.1755705 1.6 -0.9277469 0.943712 2.2853796
          -1.9021131 0.618034 1.8 -1.1179845 0.57034975 2.4187636
          -2 2.0212862e-15 2 -1.1807696 0.17394008 2.546449
          -1.9021131 -0.618034 2.2 -1.1204275 -0.20704514 2.669101
          -1.618034 -1.1755705 2.4 -0.9513941 -0.5387918 2.787433
          -1.1755705 -1.618034 2.6 -0.69594765 -0.7942382 2.902196
          -0.618034 -1.9021131 2.8 -0.3817615 -0.9543241 3.0141761
          -2.1437508e-15 -2 3 -0.039528843 -1.0085284 3.1241834
          0.618034 -1.9021131 3.2 0.2991985 -0.9548793 3.2330472
          1.1755705 -1.618034 3.4 0.6039273 -0.79961216 3.3416066
          1.618034 -1.1755705 3.6 0.84694153 -0.55659795 3.4507034
          1.9021131 -0.618034 3.8 1.0049033 -0.2465806 3.5611758
          2 -5.818929e-15 4 1.0604008 0.10381755 3.6738474
          <InformationKey name="L2_NORM_RANGE" location="vtkDataArray" length="2">
            <Value index="0">
              1.9056620133
            </Value>
            <Value index="1">
              6.1175538786
            </Value>
          </InformationKey>
        </DataArray>
      </Points>
      <Cells>
        <DataArray type="Int64" Name="connectivity" format="ascii" RangeMin="0" RangeMax="439">
          0 1 2 3 1 4
          5 2 4 6 7 5
          6 8 9 7 8 10
          11 9 10 12 13 11
          12 14 15 13 14 16
          17 15 16 18 19 17
          18 20 21 19 20 22
          23 21 22 24 25 23
          24 26 27 25 26 28
          29 27 28 30 31 29
          30 32 33 31 32 34
          35 33 34 36 37 35
          36 38 39 37 38 40
          41 39 42 43 44 45
          43 46 47 44 46 48
          49 47 48 50 51 49
          50 52 53 51 52 54
          55 53 54 56 57 55
          56 58 59 57 58 60
          61 59 60 62 63 61
          62 64 65 63 64 66
          67 65 66 68 69 67
          68 70 71 69 70 72
          73 71 72 74 75 73
          74 76 77 75 76 78
          79 77 78 80 81 79
          80 82 83 81 84 85
          86 87 85 88 89 86
          88 90 91 89 90 92
          93 91 92 94 95 93
          94 96 97 95 96 98
          99 97 98 100 101 99
          100 102 103 101 102 104
          105 103 104 106 107 105
          106 108 109 107 108 110
          111 109 110 112 113 111
          112 114 115 113 114 116
          117 115 116 118 119 117
          118 120 121 119 120 122
          123 121 122 124 125 123
          126 127 128 129 127 130
          131 128 130 132 133 131
          132 134 135 133 134 136
          137 135 136 138 139 137
          138 140 141 139 140 142
          143 141 142 144 145 143
          144 146 147 145 146 148
          149 147 148 150 151 149
          150 152 153 151 152 154
          155 153 154 156 157 155
          156 158 159 157 158 160
          161 159 160 162 163 161
          162 164 165 163 164 166
          167 165 168 169 170 171
          169 172 173 170 172 174
          175 173 174 176 177 175
          176 178 179 177 178 180
          181 179 180 182 183 181
          182 184 185 183 184 186
          187 185 186 188 189 187
          188 190 191 189 190 192
          193 191 192 194 195 193
          194 196 197 195 196 198
          199 197 198 200 201 199
          200 202 203 201 202 204
          205 203 204 206 207 205
          206 208 209 207 210 211
          212 213 211 214 215 212
          214 216 217 215 216 218
          219 217 218 220 221 219
          220 222 223 221 222 224
          225 223 224 226 227 225
          226 228 229 227 228 230
          231 229 230 232 233 231
          232 234 235 233 234 236
          237 235 236 238 239 237
          238 240 241 239 240 242
          243 241 242 244 245 243
          244 246 247 245 246 248
          249 247 248 250 251 249
          252 253 254 255 253 256
          257 254 256 258 259 257
          258 260 261 259 260 262
          263 261 262 264 265 263
          264 266 267 265 266 268
          269 267 268 270 271 269
          270 272 273 271 272 274
          275 273 274 276 277 275
          276 278 279 277 278 280
          281 279 280 282 283 281
          282 284 285 283 284 286
          287 285 286 288 289 287
          288 290 291 289 290 292
          293 291 294 295 296 297
          295 298 299 296 298 300
          301 299 300 302 303 301
          302 304 305 303 304 306
          307 305 306 308 309 307
          308 310 311 309 310 312
          313 311 312 314 315 313
          314 316 317 315 316 318
          319 317 318 320 321 319
          320 322 323 321 322 324
          325 323 324 326 327 325
          326 328 329 327 328 330
          331 329 330 332 333 331
          332 334 335 333 336 337
          338 339 340 341 342 343
          344 345 346 347 348 349
          350 351 352 353 354 355
          356 357 358 359 357 360
          361 358 360 362 363 361
          362 364 365 363 364 366
          367 365 366 368 369 367
          368 370 371 369 370 372
          373 371 372 374 375 373
          374 376 377 375 376 378
          379 377 378 380 381 379
          380 382 383 381 382 384
          385 383 384 386 387 385
          386 388 389 387 388 390
          391 389 390 392 393 391
          392 394 395 393 394 396
          397 395 398 399 400 401
          399 402 403 400 402 404
          405 403 404 406 407 405
          406 408 409 407 408 410
          411 409 410 412 413 411
          412 414 415 413 414 416
          417 415 416 418 419 417
          418 420 421 419 420 422
          423 421 422 424 425 423
          424 426 427 425 426 428
          429 427 428 430 431 429
          430 432 433 431 432 434
          435 433 434 436 437 435
          436 438 439 437
        </DataArray>
        <DataArray type="Int64" Name="offsets" format="ascii" RangeMin="4" RangeMax="820">
          4 8 12 16 20 24
          28 32 36 40 44 48
          52 56 60 64 68 72
          76 80 84 88 92 96
          100 104 108 112 116 120
          124 128 132 136 140 144
          148 152 156 160 164 168
          172 176 180 184 188 192
          196 200 204 208 212 216
          220 224 228 232 236 240
          244 248 252 256 260 264
          268 272 276 280 284 288
          292 296 300 304 308 312
          316 320 324 328 332 336
          340 344 348 352 356 360
          364 368 372 376 380 384
          388 392 396 400 404 408
          412 416 420 424 428 432
          436 440 444 448 452 456
          460 464 468 472 476 480
          484 488 492 496 500 504
          508 512 516 520 524 528
          532 536 540 544 548 552
          556 560 564 568 572 576
          580 584 588 592 596 600
          604 608 612 616 620 624
          628 632 636 640 645 650
          655 660 664 668 672 676
          680 684 688 692 696 700
          704 708 712 716 720 724
          728 732 736 740 744 748
          752 756 760 764 768 772
          776 780 784 788 792 796
          800 804 808 812 816 820
        </DataArray>
        <DataArray type="UInt8" Name="types" format="ascii" RangeMin="7" RangeMax="9">
          9 9 9 9 9 9
          9 9 9 9 9 9
          9 9 9 9 9 9
          9 9 9 9 9 9
          9 9 9 9 9 9
          9 9 9 9 9 9
          9 9 9 9 9 9
          9 9 9 9 9 9
          9 9 9 9 9 9
          9 9 9 9 9 9
          9 9 9 9 9 9
          9 9 9 9 9 9
          9 9 9 9 9 9
          9 9 9 9 9 9
          9 9 9 9 9 9