<?xml version="1.0"?>
<VTKFile type="UnstructuredGrid" version="0.1" byte_order="LittleEndian" header_type="UInt32" compressor="vtkZLibDataCompressor">
  <UnstructuredGrid>
    <Piece NumberOfPoints="440" NumberOfCells="204">
      <PointData Scalars="RegionId">
        <DataArray type="Float64" Name="node_value" format="ascii" RangeMin="0.5" RangeMax="1">
          1 0.5 0.5 1 1 1
          0.5 0.5 1 1 0.5 0.5
          1 1 0.5 0.5 1 1
          0.5 0.5 1 1 0.5 0.5
          1 1 0.5 0.5 1 1
          0.5 0.5 1 1 0.5 0.5
          1 1 0.5 0.5 1 1
          1 0.5 0.5 1 1 1
          0.5 0.5 1 1 0.5 0.5
          1 1 0.5 0.5 1 1
          0.5 0.5 1 1 0.5 0.5
          1 1 0.5 0.5 1 1
          0.5 0.5 1 1 0.5 0.5
          1 1 0.5 0.5 1 1
          1 0.5 0.5 1 1 1
          0.5 0.5 1 1 0.5 0.5
          1 1 0.5 0.5 1 1
          0.5 0.5 1 1 0.5 0.5
          1 1 0.5 0.5 1 1
          0.5 0.5 1 1 0.5 0.5
          1 1 0.5 0.5 1 1
          1 0.5 0.5 1 1 1
          0.5 0.5 1 1 0.5 0.5
          1 1 0.5 0.5 1 1
          0.5 0.5 1 1 0.5 0.5
          1 1 0.5 0.5 1 1
          0.5 0.5 1 1 0.5 0.5
          1 1 0.5 0.5 1 1
          1 0.5 0.5 1 1 1
          0.5 0.5 1 1 0.5 0.5
          1 1 0.5 0.5 1 1
          0.5 0.5 1 1 0.5 0.5
          1 1 0.5 0.5 1 1
          0.5 0.5 1 1 0.5 0.5
          1 1 0.5 0.5 1 1
          1 0.5 0.5 1 1 1
          0.5 0.5 1 1 0.5 0.5
          1 1 0.5 0.5 1 1
          0.5 0.5 1 1 0.5 0.5
          1 1 0.5 0.5 1 1
          0.5 0.5 1 1 0.5 0.5
          1 1 0.5 0.5 1 1
          1 0.5 0.5 1 1 1
          0.5 0.5 1 1 0.5 0.5
          1 1 0.5 0.5 1 1
          0.5 0.5 1 1 0.5 0.5
          1 1 0.5 0.5 1 1
          0.5 0.5 1 1 0.5 0.5
          1 1 0.5 0.5 1 1
          1 0.5 0.5 1 1 1
          0.5 0.5 1 1 0.5 0.5
          1 1 0.5 0.5 1 1
          0.5 0.5 1 1 0.5 0.5
          1 1 0.5 0.5 1 1
          0.5 0.5 1 1 0.5 0.5
          1 1 0.5 0.5 1 1
          1 1 1 1 1 1
          1 1 1 1 1 1
          1 1 1 1 1 1
          1 1 1 0.5 0.5 1
          1 1 0.5 0.5 1 1
          0.5 0.5 1 1 0.5 0.5
          1 1 0.5 0.5 1 1
          0.5 0.5 1 1 0.5 0.5
          1 1 0.5 0.5 1 1
          0.5 0.5 1 1 0.5 0.5
          1 1 1 0.5 0.5 1
          1 1 0.5 0.5 1 1
          0.5 0.5 1 1 0.5 0.5
          1 1 0.5 0.5 1 1
          0.5 0.5 1 1 0.5 0.5
          1 1 0.5 0.5 1 1
          0.5 0.5 1 1 0.5 0.5
          1 1
        </DataArray>
        <DataArray type="Int64" IdType="1" Name="vtkOriginalPointIds" format="ascii" RangeMin="0" RangeMax="209">
          1 6 7 2 11 12
          16 17 21 22 26 27
          31 32 36 37 41 42
          46 47 51 52 56 57
          61 62 66 67 71 72
          76 77 81 82 86 87
          91 92 96 97 101 102
          106 111 112 107 116 117
          121 122 126 127 131 132
          136 137 141 142 146 147
          151 152 156 157 161 162
          166 167 171 172 176 177
          181 182 186 187 191 192
          196 197 201 202 206 207
          2 7 8 3 12 13
          17 18 22 23 27 28
          32 33 37 38 42 43
          47 48 52 53 57 58
          62 63 67 68 72 73
          77 78 82 83 87 88
          92 93 97 98 102 103
          107 112 113 108 117 118
          122 123 127 128 132 133
          137 138 142 143 147 148
          152 153 157 158 162 163
          167 168 172 173 177 178
          182 183 187 188 192 193
          197 198 202 203 207 208
          3 8 9 4 13 14
          18 19 23 24 28 29
          33 34 38 39 43 44
          48 49 53 54 58 59
          63 64 68 69 73 74
          78 79 83 84 88 89
          93 94 98 99 103 104
          108 113 114 109 118 119
          123 124 128 129 133 134
          138 139 143 144 148 149
          153 154 158 159 163 164
          168 169 173 174 178 179
          183 184 188 189 193 194
          198 199 203 204 208 209
          4 9 5 0 14 10
          19 15 24 20 29 25
          34 30 39 35 44 40
          49 45 54 50 59 55
          64 60 69 65 74 70
          79 75 84 80 89 85
          94 90 99 95 104 100
          109 114 110 105 119 115
          124 120 129 125 134 130
          139 135 144 140 149 145
          154 150 159 155 164 160
          169 165 174 170 179 175
          184 180 189 185 194 190
          199 195 204 200 209 205
          4 3 2 1 0 104
          103 102 101 100 109 108
          107 106 105 209 208 207
          206 205 0 5 6 1
          10 11 15 16 20 21
          25 26 30 31 35 36
          40 41 45 46 50 51
          55 56 60 61 65 66
          70 71 75 76 80 81
          85 86 90 91 95 96
          100 101 105 110 111 106
          115 116 120 121 125 126
          130 131 135 136 140 141
          145 146 150 151 155 156
          160 161 165 166 170 171
          175 176 180 181 185 186
          190 191 195 196 200 201
          205 206
        </DataArray>
        <DataArray type="Int64" IdType="1" Name="RegionId" format="ascii" RangeMin="0" RangeMax="13">
          0 0 0 0 0 0
          0 0 0 0 0 0
          0 0 0 0 0 0
          0 0 0 0 0 0
          0 0 0 0 0 0
          0 0 0 0 0 0
          0 0 0 0 0 0
          1 1 1 1 1 1
          1 1 1 1 1 1
          1 1 1 1 1 1
          1 1 1 1 1 1
          1 1 1 1 1 1
          1 1 1 1 1 1
          1 1 1 1 1 1
          2 2 2 2 2 2
          2 2 2 2 2 2
          2 2 2 2 2 2
          2 2 2 2 2 2
          2 2 2 2 2 2
          2 2 2 2 2 2
          2 2 2 2 2 2
          3 3 3 3 3 3
          3 3 3 3 3 3
          3 3 3 3 3 3
          3 3 3 3 3 3
          3 3 3 3 3 3
          3 3 3 3 3 3
          3 3 3 3 3 3
          4 4 4 4 4 4
          4 4 4 4 4 4
          4 4 4 4 4 4
          4 4 4 4 4 4
          4 4 4 4 4 4
          4 4 4 4 4 4
          4 4 4 4 4 4
          5 5 5 5 5 5
          5 5 5 5 5 5
          5 5 5 5 5 5
          5 5 5 5 5 5
          5 5 5 5 5 5
          5 5 5 5 5 5
          5 5 5 5 5 5
          6 6 6 6 6 6
          6 6 6 6 6 6
          6 6 6 6 6 6
          6 6 6 6 6 6
          6 6 6 6 6 6
          6 6 6 6 6 6
          6 6 6 6 6 6
          7 7 7 7 7 7
          7 7 7 7 7 7
          7 7 7 7 7 7
          7 7 7 7 7 7
          7 7 7 7 7 7
          7 7 7 7 7 7
          7 7 7 7 7 7
          8 8 8 8 8 9
          9 9 9 9 10 10
          10 10 10 11 11 11
          11 11 12 12 12 12
          12 12 12 12 12 12
          12 12 12 12 12 12
          12 12 12 12 12 12
          12 12 12 12 12 12
          12 12 12 12 12 12
          12 12 12 12 12 12
          12 12 13 13 13 13
          13 13 13 13 13 13
          13 13 13 13 13 13
          13 13 13 13 13 13
          13 13 13 13 13 13
          13 13 13 13 13 13
          13 13 13 13 13 13
          13 13
        </DataArray>
      </PointData>
      <CellData Scalars="RegionId">
        <DataArray type="Int64" IdType="1" Name="vtkOriginalCellIds" format="ascii" RangeMin="0" RangeMax="199">
          1 6 11 16 21 26
          31 36 41 46 51 56
          61 66 71 76 81 86
          91 96 101 106 111 116
          121 126 131 136 141 146
          151 156 161 166 171 176
          181 186 191 196 2 7
          12 17 22 27 32 37
          42 47 52 57 62 67
          72 77 82 87 92 97
          102 107 112 117 122 127
          132 137 142 147 152 157
          162 167 172 177 182 187
          192 197 3 8 13 18
          23 28 33 38 43 48
          53 58 63 68 73 78
          83 88 93 98 103 108
          113 118 123 128 133 138
          143 148 153 158 163 168
          173 178 183 188 193 198
          4 9 14 19 24 29
          34 39 44 49 54 59
          64 69 74 79 84 89
          94 99 104 109 114 119
          124 129 134 139 144 149
          154 159 164 169 174 179
          184 189 194 199 0 1
          2 3 0 5 10 15
          20 25 30 35 40 45
          50 55 60 65 70 75
          80 85 90 95 100 105
          110 115 120 125 130 135
          140 145 150 155 160 165
          170 175 180 185 190 195
        </DataArray>
        <DataArray type="Int64" IdType="1" Name="RegionId" format="ascii" RangeMin="0" RangeMax="13">
          0 0 0 0 0 0
          0 0 0 0 0 0
          0 0 0 0 0 0
          0 0 1 1 1 1
          1 1 1 1 1 1
          1 1 1 1 1 1
          1 1 1 1 2 2
          2 2 2 2 2 2
          2 2 2 2 2 2
          2 2 2 2 2 2
          3 3 3 3 3 3
          3 3 3 3 3 3
          3 3 3 3 3 3
          3 3 4 4 4 4
          4 4 4 4 4 4
          4 4 4 4 4 4
          4 4 4 4 5 5
          5 5 5 5 5 5
          5 5 5 5 5 5
          5 5 5 5 5 5
          6 6 6 6 6 6
          6 6 6 6 6 6
          6 6 6 6 6 6
          6 6 7 7 7 7
          7 7 7 7 7 7
          7 7 7 7 7 7
          7 7 7 7 8 9
          10 11 12 12 12 12
          12 12 12 12 12 12
          12 12 12 12 12 12
          12 12 12 12 13 13
          13 13 13 13 13 13
          13 13 13 13 13 13
          13 13 13 13 13 13
        </DataArray>
      </CellData>
      <Points>
        <DataArray type="Float64" Name="Points" NumberOfComponents="3" format="ascii" RangeMin="1.9056620133122473" RangeMax="6.117553878614272">
          4 -0.3033144772052765 0.9528905153274536 3.904242992401123 0.3012710511684418 1.1485023498535156
          4.859904766082764 0.5812125205993652 1.239845871925354 5 -0.3033144772052765 0.9528905153274536
          3.6386518478393555 0.8225231766700745 1.3353782892227173 4.466823577880859 1.352677583694458 1.5172239542007446
          3.2438859939575195 1.2172890901565552 1.513639211654663 3.877162456512451 1.9423387050628662 1.784312129020691
          2.769716501235962 1.458890438079834 1.6834851503372192 3.1643028259277344 2.305558919906616 2.040492534637451
          2.269033670425415 1.5381908416748047 1.8451941013336182 2.409106969833374 2.4251701831817627 2.285247802734375
          1.7922077178955078 1.462669014930725 1.999118685722351 1.6901894807815552 2.311304807662964 2.5181655883789062
          1.382405400276184 1.2538642883300781 2.1456830501556396 1.0752098560333252 1.9979569911956787 2.738942861557007
          1.0722531080245972 0.9437119960784912 2.285379648208618 0.6142167448997498 1.5369638204574585 2.947387933731079
          0.8820154666900635 0.5703497529029846 2.4187636375427246 0.3357224464416504 0.9903880953788757 3.143423557281494
          0.8192304372787476 0.17394007742404938 2.5464489459991455 0.24576592445373535 0.4224245250225067 3.3270857334136963
          0.8795725107192993 -0.20704513788223267 2.6691009998321533 0.32978948950767517 -0.10807979851961136 3.498525381088257
          1.0486059188842773 -0.5387917757034302 2.787432909011841 0.5567880272865295 -0.553589403629303 3.6580052375793457
          1.3040523529052734 -0.7942382097244263 2.902195930480957 0.8849246501922607 -0.8817260265350342 3.8058981895446777
          1.6182385683059692 -0.9543241262435913 3.0141761302948 1.2676942348480225 -1.0767569541931152 3.942685127258301
          1.9604711532592773 -1.0085283517837524 3.124183416366577 1.6597434282302856 -1.1388514041900635 4.0689473152160645
          2.2991983890533447 -0.9548792839050293 3.2330472469329834 2.0216197967529297 -1.081535816192627 4.185364723205566
          2.6039273738861084 -0.7996121644973755 3.341606616973877 2.3229823112487793 -0.9279839992523193 4.29270601272583
          2.8469414710998535 -0.5565979480743408 3.4507033824920654 2.544104814529419 -0.7068612575531006 4.3918256759643555
          3.0049033164978027 -0.2465806007385254 3.56117582321167 2.6758008003234863 -0.4483932554721832 4.483652591705322
          3.06040096282959 0.10381755232810974 3.6738474369049072 2.7181239128112793 -0.18117645382881165 4.569182395935059
          2 -0.3033144772052765 0.9528905153274536 1.9042431116104126 0.3012710511684418 1.1485023498535156
          2.8599047660827637 0.5812125205993652 1.239845871925354 3 -0.3033144772052765 0.9528905153274536
          1.6386518478393555 0.8225231766700745 1.3353782892227173 2.4668235778808594 1.352677583694458 1.5172239542007446
          1.2438859939575195 1.2172890901565552 1.513639211654663 1.8771624565124512 1.9423387050628662 1.784312129020691
          0.7697166204452515 1.458890438079834 1.6834851503372192 1.164302945137024 2.305558919906616 2.040492534637451
          0.26903364062309265 1.5381908416748047 1.8451941013336182 0.4091070592403412 2.4251701831817627 2.285247802734375
          -0.20779229700565338 1.462669014930725 1.999118685722351 -0.3098105192184448 2.311304807662964 2.5181655883789062
          -0.6175946593284607 1.2538642883300781 2.1456830501556396 -0.92479008436203 1.9979569911956787 2.738942861557007
          -0.9277468919754028 0.9437119960784912 2.285379648208618 -1.3857831954956055 1.5369638204574585 2.947387933731079
          -1.1179845333099365 0.5703497529029846 2.4187636375427246 -1.6642775535583496 0.9903880953788757 3.143423557281494
          -1.1807695627212524 0.17394007742404938 2.5464489459991455 -1.7542340755462646 0.4224245250225067 3.3270857334136963
          -1.1204274892807007 -0.20704513788223267 2.6691009998321533 -1.6702104806900024 -0.10807979851961136 3.498525381088257
          -0.9513940811157227 -0.5387917757034302 2.787432909011841 -1.4432119131088257 -0.553589403629303 3.6580052375793457
          -0.6959476470947266 -0.7942382097244263 2.902195930480957 -1.1150753498077393 -0.8817260265350342 3.8058981895446777
          -0.38176149129867554 -0.9543241262435913 3.0141761302948 -0.7323057651519775 -1.0767569541931152 3.942685127258301
          -0.03952884301543236 -1.0085283517837524 3.124183416366577 -0.3402565121650696 -1.1388514041900635 4.0689473152160645
          0.2991985082626343 -0.9548792839050293 3.2330472469329834 0.021619852632284164 -1.081535816192627 4.185364723205566
          0.6039273142814636 -0.7996121644973755 3.341606616973877 0.32298222184181213 -0.9279839992523193 4.29270601272583
          0.8469415307044983 -0.5565979480743408 3.4507033824920654 0.5441049337387085 -0.7068612575531006 4.3918256759643555
          1.0049033164978027 -0.2465806007385254 3.56117582321167 0.6758009791374207 -0.4483932554721832 4.483652591705322
          1.0604008436203003 0.10381755232810974 3.6738474369049072 0.7181239128112793 -0.18117645382881165 4.569182395935059
          5 -0.3033144772052765 0.9528905153274536 4.859904766082764 0.5812125205993652 1.239845871925354
          4.85777473449707 0.8979754447937012 0.29134348034858704 5 0 0
          4.466823577880859 1.352677583694458 1.5172239542007446 4.4462056159973145 1.705724835395813 0.5818456411361694
          3.877162456512451 1.9423387050628662 1.784312129020691 3.808846950531006 2.343083620071411 0.8706730008125305
          3.1643028259277344 2.305558919906616 2.040492534637451 3.012620210647583 2.748781442642212 1.1570073366165161
          2.409106969833374 2.4251701831817627 2.285247802734375 2.140073299407959 2.886979341506958 1.4400535821914673
          1.6901894807815552 2.311304807662964 2.5181655883789062 1.2799477577209473 2.750748872756958 1.719046950340271
          1.0752098560333252 1.9979569911956787 2.738942861557007 0.5172340869903564 2.3621268272399902 1.9932595491409302
          0.6142167448997498 1.5369638204574585 2.947387933731079 -0.07607035338878632 1.7688223123550415 2.2620084285736084
          0.3357224464416504 0.9903880953788757 3.143423557281494 -0.4484061002731323 1.0380723476409912 2.5246596336364746
          0.24576592445373535 0.4224245250225067 3.3270857334136963 -0.5734645128250122 0.24848444759845734 2.780636787414551
          0.32978948950767517 -0.10807979851961136 3.498525381088257 -0.451896071434021 -0.5190686583518982 3.0294241905212402
          0.5567880272865295 -0.553589403629303 3.6580052375793457 -0.1098518818616867 -1.1903680562973022 3.2705724239349365
          0.8849246501922607 -0.8817260265350342 3.8058981895446777 0.4053018391132355 -1.705521821975708 3.503702163696289
          1.2676942348480225 -1.0767569541931152 3.942685127258301 1.0314217805862427 -2.024545907974243 3.728508949279785
          1.6597434282302856 -1.1388514041900635 4.0689473152160645 1.6992722749710083 -2.1303229331970215 3.9447638988494873
          2.0216197967529297 -1.081535816192627 4.185364723205566 2.3404552936553955 -2.0287694931030273 4.152317523956299
          2.3229823112487793 -0.9279839992523193 4.29270601272583 2.894625425338745 -1.746405839920044 4.351099967956543
          2.544104814529419 -0.7068612575531006 4.3918256759643555 3.315197229385376 -1.325833797454834 4.541121959686279
          2.6758008003234863 -0.4483932554721832 4.483652591705322 3.5730106830596924 -0.8198466897010803 4.722476482391357
          2.7181239128112793 -0.18117645382881165 4.569182395935059 3.6577229499816895 -0.2849940061569214 4.8953351974487305
          3 -0.3033144772052765 0.9528905153274536 2.8599047660827637 0.5812125205993652 1.239845871925354
          2.8577747344970703 0.8979754447937012 0.29134348034858704 3 0 0
          2.4668235778808594 1.352677583694458 1.5172239542007446 2.4462058544158936 1.705724835395813 0.5818456411361694
          1.8771624565124512 1.9423387050628662 1.784312129020691 1.8088469505310059 2.343083620071411 0.8706730008125305
          1.164302945137024 2.305558919906616 2.040492534637451 1.0126203298568726 2.748781442642212 1.1570073366165161
          0.4091070592403412 2.4251701831817627 2.285247802734375 0.14007341861724854 2.886979341506958 1.4400535821914673
          -0.3098105192184448 2.311304807662964 2.5181655883789062 -0.7200522422790527 2.750748872756958 1.719046950340271
          -0.92479008436203 1.9979569911956787 2.738942861557007 -1.4827659130096436 2.3621268272399902 1.9932595491409302
          -1.3857831954956055 1.5369638204574585 2.947387933731079 -2.0760703086853027 1.7688223123550415 2.2620084285736084
          -1.6642775535583496 0.9903880953788757 3.143423557281494 -2.448406219482422 1.0380723476409912 2.5246596336364746
          -1.7542340755462646 0.4224245250225067 3.3270857334136963 -2.5734643936157227 0.24848444759845734 2.780636787414551
          -1.6702104806900024 -0.10807979851961136 3.498525381088257 -2.4518961906433105 -0.5190686583518982 3.0294241905212402
          -1.4432119131088257 -0.553589403629303 3.6580052375793457 -2.109851837158203 -1.1903680562973022 3.2705724239349365
          -1.1150753498077393 -0.8817260265350342 3.8058981895446777 -1.594698190689087 -1.705521821975708 3.503702163696289
          -0.7323057651519775 -1.0767569541931152 3.942685127258301 -0.9685782790184021 -2.024545907974243 3.728508949279785
          -0.3402565121650696 -1.1388514041900635 4.0689473152160645 -0.3007276952266693 -2.1303229331970215 3.9447638988494873
          0.021619852632284164 -1.081535816192627 4.185364723205566 0.3404553532600403 -2.0287694931030273 4.152317523956299
          0.32298222184181213 -0.9279839992523193 4.29270601272583 0.8946253657341003 -1.746405839920044 4.351099967956543
          0.5441049337387085 -0.7068612575531006 4.3918256759643555 1.3151973485946655 -1.325833797454834 4.541121959686279
          0.6758009791374207 -0.4483932554721832 4.483652591705322 1.573010802268982 -0.8198466897010803 4.722476482391357
          0.7181239128112793 -0.18117645382881165 4.569182395935059 1.657723069190979 -0.2849940061569214 4.8953351974487305
          5 0 0 4.85777473449707 0.8979754447937012 0.29134348034858704
          4.19030237197876 0.48028239607810974 0.8913546800613403 4.300000190734863 -0.21232013404369354 0.6670233607292175
          4.4462056159973145 1.705724835395813 0.5818456411361694 3.880918025970459 1.0874836444854736 1.109318494796753
          3.808846950531006 2.343083620071411 0.8706730008125305 3.413374185562134 1.5550274848937988 1.320749282836914
          3.012620210647583 2.748781442642212 1.1570073366165161 2.84258770942688 1.8458577394485474 1.52554190158844
          2.140073299407959 2.886979341506958 1.4400535821914673 2.2303454875946045 1.9428273439407349 1.7236520051956177
          1.2799477577209473 2.750748872756958 1.719046950340271 1.6385297775268555 1.849092960357666 1.9150972366333008
          0.5172340869903564 2.3621268272399902 1.9932595491409302 1.1228539943695068 1.5863429307937622 2.0999560356140137
          -0.07607035338878632 1.7688223123550415 2.2620084285736084 0.7277560830116272 1.1912450790405273 2.2783682346343994
          -0.4484061002731323 1.0380723476409912 2.5246596336364746 0.48288899660110474 0.7106665372848511 2.4505324363708496
          -0.5734645128250122 0.24848444759845734 2.780636787414551 0.4014219343662262 0.1963033825159073 2.6167051792144775
          -0.451896071434021 -0.5190686583518982 3.0294241905212402 0.48013192415237427 -0.3006522059440613 2.777198076248169
          -0.1098518818616867 -1.1903680562973022 3.2705724239349365 0.7010685801506042 -0.7342646718025208 2.9323747158050537
          0.4053018391132355 -1.705521821975708 3.503702163696289 1.0344271659851074 -1.067623257637024 3.0826478004455566
          1.0314217805862427 -2.024545907974243 3.728508949279785 1.4421935081481934 -1.275390625 3.22847580909729
          1.6992722749710083 -2.1303229331970215 3.9447638988494873 1.8821115493774414 -1.345066785812378 3.3703575134277344
          2.3404552936553955 -2.0287694931030273 4.152317523956299 2.311575412750244 -1.2770464420318604 3.5088281631469727
          2.894625425338745 -1.746405839920044 4.351099967956543 2.6911368370056152 -1.0836502313613892 3.6444544792175293
          3.315197229385376 -1.325833797454834 4.541121959686279 2.9874181747436523 -0.7873687148094177 3.777829170227051
          3.5730106830596924 -0.8198466897010803 4.722476482391357 3.17533540725708 -0.4185604155063629 3.9095659255981445
          3.6577229499816895 -0.2849940061569214 4.8953351974487305 3.2395975589752197 -0.012825916521251202 4.0402936935424805
          3 0 0 2.8577747344970703 0.8979754447937012 0.29134348034858704
          2.190302610397339 0.48028239607810974 0.8913546800613403 2.299999952316284 -0.21232013404369354 0.6670233607292175
          2.4462058544158936 1.705724835395813 0.5818456411361694 1.880918025970459 1.0874836444854736 1.109318494796753
          1.8088469505310059 2.343083620071411 0.8706730008125305 1.4133743047714233 1.5550274848937988 1.320749282836914
          1.0126203298568726 2.748781442642212 1.1570073366165161 0.8425877094268799 1.8458577394485474 1.52554190158844
          0.14007341861724854 2.886979341506958 1.4400535821914673 0.23034557700157166 1.9428273439407349 1.7236520051956177
          -0.7200522422790527 2.750748872756958 1.719046950340271 -0.3614702820777893 1.849092960357666 1.9150972366333008
          -1.4827659130096436 2.3621268272399902 1.9932595491409302 -0.8771460056304932 1.5863429307937622 2.0999560356140137
          -2.0760703086853027 1.7688223123550415 2.2620084285736084 -1.2722439765930176 1.1912450790405273 2.2783682346343994
          -2.448406219482422 1.0380723476409912 2.5246596336364746 -1.5171109437942505 0.7106665372848511 2.4505324363708496
          -2.5734643936157227 0.24848444759845734 2.780636787414551 -1.5985780954360962 0.1963033825159073 2.6167051792144775
          -2.4518961906433105 -0.5190686583518982 3.0294241905212402 -1.519868016242981 -0.3006522059440613 2.777198076248169
          -2.109851837158203 -1.1903680562973022 3.2705724239349365 -1.2989314794540405 -0.7342646718025208 2.9323747158050537
          -1.594698190689087 -1.705521821975708 3.503702163696289 -0.9655728340148926 -1.067623257637024 3.0826478004455566
          -0.9685782790184021 -2.024545907974243 3.728508949279785 -0.5578064918518066 -1.275390625 3.22847580909729
          -0.3007276952266693 -2.1303229331970215 3.9447638988494873 -0.11788849532604218 -1.345066785812378 3.3703575134277344
          0.3404553532600403 -2.0287694931030273 4.152317523956299 0.3115755617618561 -1.2770464420318604 3.5088281631469727
          0.8946253657341003 -1.746405839920044 4.351099967956543 0.6911367177963257 -1.0836502313613892 3.6444544792175293
          1.3151973485946655 -1.325833797454834 4.541121959686279 0.9874182939529419 -0.7873687148094177 3.777829170227051
          1.573010802268982 -0.8198466897010803 4.722476482391357 1.1753355264663696 -0.4185604155063629 3.9095659255981445
          1.657723069190979 -0.2849940061569214 4.8953351974487305 1.2395975589752197 -0.012825916521251202 4.0402936935424805
          4.300000190734863 -0.21232013404369354 0.6670233607292175 4.19030237197876 0.48028239607810974 0.8913546800613403
          3.9021129608154297 0.6180340051651001 0.20000000298023224 4 0 0
          3.880918025970459 1.0874836444854736 1.109318494796753 3.6180338859558105 1.1755704879760742 0.4000000059604645
          3.413374185562134 1.5550274848937988 1.320749282836914 3.175570487976074 1.6180340051651 0.6000000238418579
          2.84258770942688 1.8458577394485474 1.52554190158844 2.6180338859558105 1.9021130800247192 0.800000011920929
          2.2303454875946045 1.9428273439407349 1.7236520051956177 2 2 1
          1.6385297775268555 1.849092960357666 1.9150972366333008 1.3819659948349 1.9021130800247192 1.2000000476837158
          1.1228539943695068 1.5863429307937622 2.0999560356140137 0.8244295120239258 1.6180340051651 1.399999976158142
          0.7277560830116272 1.1912450790405273 2.2783682346343994 0.3819659948348999 1.1755704879760742 1.600000023841858
          0.48288899660110474 0.7106665372848511 2.4505324363708496 0.09788691997528076 0.6180340051651001 1.7999999523162842
          0.4014219343662262 0.1963033825159073 2.6167051792144775 0 2.021286156977725e-15 2
          0.48013192415237427 -0.3006522059440613 2.777198076248169 0.09788691997528076 -0.6180340051651001 2.200000047683716
          0.7010685801506042 -0.7342646718025208 2.9323747158050537 0.3819659948348999 -1.1755704879760742 2.4000000953674316
          1.0344271659851074 -1.067623257637024 3.0826478004455566 0.8244295120239258 -1.6180340051651 2.5999999046325684
          1.4421935081481934 -1.275390625 3.22847580909729 1.3819659948349 -1.9021130800247192 2.799999952316284
          1.8821115493774414 -1.345066785812378 3.3703575134277344 2 -2 3
          2.311575412750244 -1.2770464420318604 3.5088281631469727 2.6180338859558105 -1.9021130800247192 3.200000047683716
          2.6911368370056152 -1.0836502313613892 3.6444544792175293 3.175570487976074 -1.6180340051651 3.4000000953674316
          2.9874181747436523 -0.7873687148094177 3.777829170227051 3.6180338859558105 -1.1755704879760742 3.5999999046325684
          3.17533540725708 -0.4185604155063629 3.9095659255981445 3.9021129608154297 -0.6180340051651001 3.799999952316284
          3.2395975589752197 -0.012825916521251202 4.0402936935424805 4 -5.8189291533557e-15 4
          2.299999952316284 -0.21232013404369354 0.6670233607292175 2.190302610397339 0.48028239607810974 0.8913546800613403
          1.9021130800247192 0.6180340051651001 0.20000000298023224 2 0 0
          1.880918025970459 1.0874836444854736 1.109318494796753 1.6180340051651 1.1755704879760742 0.4000000059604645
          1.4133743047714233 1.5550274848937988 1.320749282836914 1.1755704879760742 1.6180340051651 0.6000000238418579
          0.8425877094268799 1.8458577394485474 1.52554190158844 0.6180340051651001 1.9021130800247192 0.800000011920929
          0.23034557700157166 1.9428273439407349 1.7236520051956177 5.665538686387998e-16 2 1
          -0.3614702820777893 1.849092960357666 1.9150972366333008 -0.6180340051651001 1.9021130800247192 1.2000000476837158
          -0.8771460056304932 1.5863429307937622 2.0999560356140137 -1.1755704879760742 1.6180340051651 1.399999976158142
          -1.2722439765930176 1.1912450790405273 2.2783682346343994 -1.6180340051651 1.1755704879760742 1.600000023841858
          -1.5171109437942505 0.7106665372848511 2.4505324363708496 -1.9021130800247192 0.6180340051651001 1.7999999523162842
          -1.5985780954360962 0.1963033825159073 2.6167051792144775 -2 2.021286156977725e-15 2
          -1.519868016242981 -0.3006522059440613 2.777198076248169 -1.9021130800247192 -0.6180340051651001 2.200000047683716
          -1.2989314794540405 -0.7342646718025208 2.9323747158050537 -1.6180340051651 -1.1755704879760742 2.4000000953674316
          -0.9655728340148926 -1.067623257637024 3.0826478004455566 -1.1755704879760742 -1.6180340051651 2.5999999046325684
          -0.5578064918518066 -1.275390625 3.22847580909729 -0.6180340051651001 -1.9021130800247192 2.799999952316284
          -0.11788849532604218 -1.345066785812378 3.3703575134277344 -2.143750815766462e-15 -2 3
          0.3115755617618561 -1.2770464420318604 3.5088281631469727 0.6180340051651001 -1.9021130800247192 3.200000047683716
          0.6911367177963257 -1.0836502313613892 3.6444544792175293 1.1755704879760742 -1.6180340051651 3.4000000953674316
          0.9874182939529419 -0.7873687148094177 3.777829170227051 1.6180340051651 -1.1755704879760742 3.5999999046325684
          1.1753355264663696 -0.4185604155063629 3.9095659255981445 1.9021130800247192 -0.6180340051651001 3.799999952316284
          1.2395975589752197 -0.012825916521251202 4.0402936935424805 2 -5.8189291533557e-15 4
          4.300000190734863 -0.21232013404369354 0.6670233607292175 5 0 0
          5 -0.3033144772052765 0.9528905153274536 4 -0.3033144772052765 0.9528905153274536
          4 0 0 3.2395975589752197 -0.012825916521251202 4.0402936935424805
          3.6577229499816895 -0.2849940061569214 4.8953351974487305 2.7181239128112793 -0.18117645382881165 4.569182395935059
          3.06040096282959 0.10381755232810974 3.6738474369049072 4 -5.8189291533557e-15 4
          2.299999952316284 -0.21232013404369354 0.6670233607292175 3 0 0
          3 -0.3033144772052765 0.9528905153274536 2 -0.3033144772052765 0.9528905153274536
          2 0 0 1.2395975589752197 -0.012825916521251202 4.0402936935424805
          1.657723069190979 -0.2849940061569214 4.8953351974487305 0.7181239128112793 -0.18117645382881165 4.569182395935059
          1.0604008436203003 0.10381755232810974 3.6738474369049072 2 -5.8189291533557e-15 4