<?xml version="1.0" ?>
<!--
# vtk DataFile Version 3.0
-->
<VTKFile type="UnstructuredGrid" version="0.1" compressor="vtkZLibDataCompressor" byte_order="LittleEndian">
  <UnstructuredGrid>
    <FieldData>
      <DataArray type="Float64" Name="TIME" NumberOfTuples="1" format="ascii">
9.999999999999999e-01
      </DataArray>
    </FieldData>

    <Piece NumberOfPoints="320" NumberOfCells="40" >
      <Points>
        <DataArray type="Float64" NumberOfComponents="3" format="ascii">
-4.500000000000000e+00 2.000000000000000e+00 1.000000000000000e-01
-4.500000000000000e+00 1.000000000000000e+00 1.000000000000000e-01
-5.000000000000000e+00 1.000000000000000e+00 1.000000000000000e-01
-5.000000000000000e+00 2.000000000000000e+00 1.000000000000000e-01
-4.500000000000000e+00 2.000000000000000e+00 0.000000000000000e+00
-4.500000000000000e+00 1.000000000000000e+00 -1.734723475976807e-18
-5.000000000000000e+00 1.000000000000000e+00 0.000000000000000e+00
-5.000000000000000e+00 2.000000000000000e+00 0.000000000000000e+00
-4.500000000000000e+00 2.000000000000000e+00 0.000000000000000e+00
-4.500000000000000e+00 1.000000000000000e+00 -1.734723475976807e-18
-5.000000000000000e+00 1.000000000000000e+00 0.000000000000000e+00
-5.000000000000000e+00 2.000000000000000e+00 0.000000000000000e+00
-4.500000000000000e+00 2.000000000000000e+00 -1.000000000000000e-01
-4.500000000000000e+00 1.000000000000000e+00 -1.000000000000000e-01
-5.000000000000000e+00 1.000000000000000e+00 -1.000000000000000e-01
-5.000000000000000e+00 2.000000000000000e+00 -1.000000000000000e-01
-4.000000000000000e+00 2.000000000000000e+00 1.000000000000000e-01
-4.000000000000000e+00 1.000000000000000e+00 1.000000000000000e-01
-4.500000000000000e+00 1.000000000000000e+00 1.000000000000000e-01
-4.500000000000000e+00 2.000000000000000e+00 1.000000000000000e-01
-4.000000000000000e+00 2.000000000000000e+00 0.000000000000000e+00
-4.000000000000000e+00 1.000000000000000e+00 3.469446951953614e-18
-4.500000000000000e+00 1.000000000000000e+00 -1.734723475976807e-18
-4.500000000000000e+00 2.000000000000000e+00 0.000000000000000e+00
-4.000000000000000e+00 2.000000000000000e+00 0.000000000000000e+00
-4.000000000000000e+00 1.000000000000000e+00 3.469446951953614e-18
-4.500000000000000e+00 1.000000000000000e+00 -1.734723475976807e-18
-4.500000000000000e+00 2.000000000000000e+00 0.000000000000000e+00
-4.000000000000000e+00 2.000000000000000e+00 -1.000000000000000e-01
-4.000000000000000e+00 1.000000000000000e+00 -1.000000000000000e-01
-4.500000000000000e+00 1.000000000000000e+00 -1.000000000000000e-01
-4.500000000000000e+00 2.000000000000000e+00 -1.000000000000000e-01
-3.500000000000000e+00 2.000000000000000e+00 1.000000000000000e-01
-3.500000000000000e+00 1.000000000000000e+00 1.000000000000000e-01
-4.000000000000000e+00 1.000000000000000e+00 1.000000000000000e-01
-4.000000000000000e+00 2.000000000000000e+00 1.000000000000000e-01
-3.500000000000000e+00 2.000000000000000e+00 0.000000000000000e+00
-3.500000000000000e+00 1.000000000000000e+00 0.000000000000000e+00
-4.000000000000000e+00 1.000000000000000e+00 3.469446951953614e-18
-4.000000000000000e+00 2.000000000000000e+00 0.000000000000000e+00
-3.500000000000000e+00 2.000000000000000e+00 0.000000000000000e+00
-3.500000000000000e+00 1.000000000000000e+00 0.000000000000000e+00
-4.000000000000000e+00 1.000000000000000e+00 3.469446951953614e-18
-4.000000000000000e+00 2.000000000000000e+00 0.000000000000000e+00
-3.500000000000000e+00 2.000000000000000e+00 -1.000000000000000e-01
-3.500000000000000e+00 1.000000000000000e+00 -1.000000000000000e-01
-4.000000000000000e+00 1.000000000000000e+00 -1.000000000000000e-01
-4.000000000000000e+00 2.000000000000000e+00 -1.000000000000000e-01
-3.000000000000000e+00 2.000000000000000e+00 1.000000000000000e-01
-3.000000000000000e+00 1.000000000000000e+00 1.000000000000000e-01
-3.500000000000000e+00 1.000000000000000e+00 1.000000000000000e-01
-3.500000000000000e+00 2.000000000000000e+00 1.000000000000000e-01
-3.000000000000000e+00 2.000000000000000e+00 0.000000000000000e+00
-3.000000000000000e+00 1.000000000000000e+00 0.000000000000000e+00
-3.500000000000000e+00 1.000000000000000e+00 0.000000000000000e+00
-3.500000000000000e+00 2.000000000000000e+00 0.000000000000000e+00
-3.000000000000000e+00 2.000000000000000e+00 0.000000000000000e+00
-3.000000000000000e+00 1.000000000000000e+00 0.000000000000000e+00
-3.500000000000000e+00 1.000000000000000e+00 0.000000000000000e+00
-3.500000000000000e+00 2.000000000000000e+00 0.000000000000000e+00
-3.000000000000000e+00 2.000000000000000e+00 -1.000000000000000e-01
-3.000000000000000e+00 1.000000000000000e+00 -1.000000000000000e-01
-3.500000000000000e+00 1.000000000000000e+00 -1.000000000000000e-01
-3.500000000000000e+00 2.000000000000000e+00 -1.000000000000000e-01
-2.500000000000000e+00 2.000000000000000e+00 1.000000000000000e-01
-2.500000000000000e+00 1.000000000000000e+00 1.000000000000000e-01
-3.000000000000000e+00 1.000000000000000e+00 1.000000000000000e-01
-3.000000000000000e+00 2.000000000000000e+00 1.000000000000000e-01
-2.500000000000000e+00 2.000000000000000e+00 0.000000000000000e+00
-2.500000000000000e+00 1.000000000000000e+00 3.469446951953614e-18
-3.000000000000000e+00 1.000000000000000e+00 0.000000000000000e+00
-3.000000000000000e+00 2.000000000000000e+00 0.000000000000000e+00
-2.500000000000000e+00 2.000000000000000e+00 0.000000000000000e+00
-2.500000000000000e+00 1.000000000000000e+00 3.469446951953614e-18
-3.000000000000000e+00 1.000000000000000e+00 0.000000000000000e+00
-3.000000000000000e+00 2.000000000000000e+00 0.000000000000000e+00
-2.500000000000000e+00 2.000000000000000e+00 -1.000000000000000e-01
-2.500000000000000e+00 1.000000000000000e+00 -1.000000000000000e-01
-3.000000000000000e+00 1.000000000000000e+00 -1.000000000000000e-01
-3.000000000000000e+00 2.000000000000000e+00 -1.000000000000000e-01
-2.000000000000000e+00 2.000000000000000e+00 1.000000000000000e-01
-2.000000000000000e+00 1.000000000000000e+00 1.000000000000000e-01
-2.500000000000000e+00 1.000000000000000e+00 1.000000000000000e-01
-2.500000000000000e+00 2.000000000000000e+00 1.000000000000000e-01
-2.000000000000000e+00 2.000000000000000e+00 -6.938893903907228e-18
-2.000000000000000e+00 1.000000000000000e+00 0.000000000000000e+00
-2.500000000000000e+00 1.000000000000000e+00 3.469446951953614e-18
-2.500000000000000e+00 2.000000000000000e+00 0.000000000000000e+00
-2.000000000000000e+00 2.000000000000000e+00 -6.938893903907228e-18
-2.000000000000000e+00 1.000000000000000e+00 0.000000000000000e+00
-2.500000000000000e+00 1.000000000000000e+00 3.469446951953614e-18
-2.500000000000000e+00 2.000000000000000e+00 0.000000000000000e+00
-2.000000000000000e+00 2.000000000000000e+00 -1.000000000000000e-01
-2.000000000000000e+00 1.000000000000000e+00 -1.000000000000000e-01
-2.500000000000000e+00 1.000000000000000e+00 -1.000000000000000e-01
-2.500000000000000e+00 2.000000000000000e+00 -1.000000000000000e-01
-1.500000000000000e+00 2.000000000000000e+00 1.000000000000000e-01
-1.500000000000000e+00 1.000000000000000e+00 1.000000000000000e-01
-2.000000000000000e+00 1.000000000000000e+00 1.000000000000000e-01
-2.000000000000000e+00 2.000000000000000e+00 1.000000000000000e-01
-1.500000000000000e+00 2.000000000000000e+00 0.000000000000000e+00
-1.500000000000000e+00 1.000000000000000e+00 -3.469446951953614e-18
-2.000000000000000e+00 1.000000000000000e+00 0.000000000000000e+00
-2.000000000000000e+00 2.000000000000000e+00 -6.938893903907228e-18
-1.500000000000000e+00 2.000000000000000e+00 0.000000000000000e+00
-1.500000000000000e+00 1.000000000000000e+00 -3.469446951953614e-18
-2.000000000000000e+00 1.000000000000000e+00 0.000000000000000e+00
-2.000000000000000e+00 2.000000000000000e+00 -6.938893903907228e-18
-1.500000000000000e+00 2.000000000000000e+00 -1.000000000000000e-01
-1.500000000000000e+00 1.000000000000000e+00 -1.000000000000000e-01
-2.000000000000000e+00 1.000000000000000e+00 -1.000000000000000e-01
-2.000000000000000e+00 2.000000000000000e+00 -1.000000000000000e-01
-1.000000000000000e+00 2.000000000000000e+00 1.000000000000000e-01
-1.000000000000000e+00 1.000000000000000e+00 1.000000000000000e-01
-1.500000000000000e+00 1.000000000000000e+00 1.000000000000000e-01
-1.500000000000000e+00 2.000000000000000e+00 1.000000000000000e-01
-1.000000000000000e+00 2.000000000000000e+00 0.000000000000000e+00
-1.000000000000000e+00 1.000000000000000e+00 0.000000000000000e+00
-1.500000000000000e+00 1.000000000000000e+00 -3.469446951953614e-18
-1.500000000000000e+00 2.000000000000000e+00 0.000000000000000e+00
-1.000000000000000e+00 2.000000000000000e+00 0.000000000000000e+00
-1.000000000000000e+00 1.000000000000000e+00 0.000000000000000e+00
-1.500000000000000e+00 1.000000000000000e+00 -3.469446951953614e-18
-1.500000000000000e+00 2.000000000000000e+00 0.000000000000000e+00
-1.000000000000000e+00 2.000000000000000e+00 -1.000000000000000e-01
-1.000000000000000e+00 1.000000000000000e+00 -1.000000000000000e-01
-1.500000000000000e+00 1.000000000000000e+00 -1.000000000000000e-01
-1.500000000000000e+00 2.000000000000000e+00 -1.000000000000000e-01
-5.000000000000000e-01 2.000000000000000e+00 1.000000000000000e-01
-5.000000000000000e-01 1.000000000000000e+00 1.000000000000000e-01
-1.000000000000000e+00 1.000000000000000e+00 1.000000000000000e-01
-1.000000000000000e+00 2.000000000000000e+00 1.000000000000000e-01
-5.000000000000000e-01 2.000000000000000e+00 0.000000000000000e+00
-5.000000000000000e-01 1.000000000000000e+00 3.469446951953614e-18
-1.000000000000000e+00 1.000000000000000e+00 0.000000000000000e+00
-1.000000000000000e+00 2.000000000000000e+00 0.000000000000000e+00
-5.000000000000000e-01 2.000000000000000e+00 0.000000000000000e+00
-5.000000000000000e-01 1.000000000000000e+00 3.469446951953614e-18
-1.000000000000000e+00 1.000000000000000e+00 0.000000000000000e+00
-1.000000000000000e+00 2.000000000000000e+00 0.000000000000000e+00
-5.000000000000000e-01 2.000000000000000e+00 -1.000000000000000e-01
[...]
  <PointData>
        <DataArray type="Float64" Name="displacement" NumberOfComponents="3" format="ascii">
-3.029477214484812e-02 4.325574441316408e-16 6.125356258796405e-02
-3.029477214484676e-02 2.876983652581749e-16 6.125356258796435e-02
0.000000000000000e+00 0.000000000000000e+00 0.000000000000000e+00
0.000000000000000e+00 0.000000000000000e+00 0.000000000000000e+00
-4.836524607148591e-03 2.555359047141974e-16 6.465155241416795e-02
-4.836524607148410e-03 2.883188774862254e-16 6.465155241416806e-02
0.000000000000000e+00 0.000000000000000e+00 0.000000000000000e+00
0.000000000000000e+00 0.000000000000000e+00 0.000000000000000e+00
-4.836524607148591e-03 2.555359047141974e-16 6.465155241416795e-02
-4.836524607148410e-03 2.883188774862254e-16 6.465155241416806e-02
0.000000000000000e+00 0.000000000000000e+00 0.000000000000000e+00
0.000000000000000e+00 0.000000000000000e+00 0.000000000000000e+00
2.064188976227763e-02 1.199015990290920e-16 6.805779683021944e-02
2.064188976227879e-02 1.116614968926079e-16 6.805779683021977e-02
0.000000000000000e+00 0.000000000000000e+00 0.000000000000000e+00
0.000000000000000e+00 0.000000000000000e+00 0.000000000000000e+00
-8.485155002140177e-02 5.992830023349276e-16 2.335754598841215e-01
-8.485155002140157e-02 5.085342327958357e-16 2.335754598841211e-01
-3.029477214484676e-02 2.876983652581749e-16 6.125356258796435e-02
-3.029477214484812e-02 4.325574441316408e-16 6.125356258796405e-02
-3.883990009518322e-02 6.521922936942306e-16 2.448414806651472e-01
-3.883990009518338e-02 3.248356001529364e-16 2.448414806651466e-01
-4.836524607148410e-03 2.883188774862254e-16 6.465155241416806e-02
-4.836524607148591e-03 2.555359047141974e-16 6.465155241416795e-02
-3.883990009518322e-02 6.521922936942306e-16 2.448414806651472e-01
-3.883990009518338e-02 3.248356001529364e-16 2.448414806651466e-01
-4.836524607148410e-03 2.883188774862254e-16 6.465155241416806e-02
-4.836524607148591e-03 2.555359047141974e-16 6.465155241416795e-02
7.139232486690294e-03 8.548331289750462e-16 2.560929565706854e-01
7.139232486690903e-03 7.410304872293464e-16 2.560929565706850e-01
2.064188976227879e-02 1.116614968926079e-16 6.805779683021977e-02
2.064188976227763e-02 1.199015990290920e-16 6.805779683021944e-02
-1.802475469025776e-01 8.989764640655829e-16 4.941186677504982e-01
-1.802475469025773e-01 5.417634721871499e-16 4.941186677504978e-01
-8.485155002140157e-02 5.085342327958357e-16 2.335754598841211e-01
-8.485155002140177e-02 5.992830023349276e-16 2.335754598841215e-01
-1.186343908543675e-01 6.717884307049304e-16 5.154038684293294e-01
-1.186343908543672e-01 4.363782329005829e-16 5.154038684293292e-01
-3.883990009518338e-02 3.248356001529364e-16 2.448414806651466e-01
-3.883990009518322e-02 6.521922936942306e-16 2.448414806651472e-01
-1.186343908543675e-01 6.717884307049304e-16 5.154038684293294e-01
-1.186343908543672e-01 4.363782329005829e-16 5.154038684293292e-01
-3.883990009518338e-02 3.248356001529364e-16 2.448414806651466e-01
-3.883990009518322e-02 6.521922936942306e-16 2.448414806651472e-01
-5.700590379955144e-02 6.260659758492696e-16 5.367016899087353e-01
-5.700590379955117e-02 5.744179442898826e-16 5.367016899087350e-01
7.139232486690903e-03 7.410304872293464e-16 2.560929565706850e-01
7.139232486690294e-03 8.548331289750462e-16 2.560929565706854e-01
-3.235340518087567e-01 7.641736752992217e-16 8.217657039847125e-01
-3.235340518087562e-01 6.932087479968682e-16 8.217657039847124e-01
-1.802475469025773e-01 5.417634721871499e-16 4.941186677504978e-01
-1.802475469025776e-01 8.989764640655829e-16 4.941186677504982e-01
-2.504259741558739e-01 1.052412671903659e-15 8.535745505793255e-01
-2.504259741558734e-01 9.601664542339662e-16 8.535745505793253e-01
-1.186343908543672e-01 4.363782329005829e-16 5.154038684293292e-01
-1.186343908543675e-01 6.717884307049304e-16 5.154038684293294e-01
-2.504259741558739e-01 1.052412671903659e-15 8.535745505793255e-01
-2.504259741558734e-01 9.601664542339662e-16 8.535745505793253e-01
-1.186343908543672e-01 4.363782329005829e-16 5.154038684293292e-01
-1.186343908543675e-01 6.717884307049304e-16 5.154038684293294e-01
-1.773325605474712e-01 9.303342078232696e-16 8.853689318085201e-01
-1.773325605474702e-01 6.780240113930944e-16 8.853689318085201e-01
-5.700590379955117e-02 5.744179442898826e-16 5.367016899087350e-01
-5.700590379955144e-02 6.260659758492696e-16 5.367016899087353e-01
-5.153240643296829e-01 1.142041588932694e-15 1.198912751979825e+00
-5.153240643296827e-01 1.125896485451069e-15 1.198912751979826e+00
-3.235340518087562e-01 6.932087479968682e-16 8.217657039847124e-01
-3.235340518087567e-01 7.641736752992217e-16 8.217657039847125e-01
-4.340078031335796e-01 1.041470940833292e-15 1.240739971349042e+00
-4.340078031335794e-01 9.893359095176097e-16 1.240739971349043e+00
-2.504259741558734e-01 9.601664542339662e-16 8.535745505793253e-01
-2.504259741558739e-01 1.052412671903659e-15 8.535745505793255e-01
-4.340078031335796e-01 1.041470940833292e-15 1.240739971349042e+00
-4.340078031335794e-01 9.893359095176097e-16 1.240739971349043e+00
-2.504259741558734e-01 9.601664542339662e-16 8.535745505793253e-01
-2.504259741558739e-01 1.052412671903659e-15 8.535745505793255e-01
-3.526853901250344e-01 1.187000456777657e-15 1.282575984262292e+00
-3.526853901250344e-01 1.028615535493701e-15 1.282575984262292e+00
-1.773325605474702e-01 6.780240113930944e-16 8.853689318085201e-01
-1.773325605474712e-01 9.303342078232696e-16 8.853689318085201e-01
-7.526934100030624e-01 1.625622061222122e-15 1.611793285771553e+00
-7.526934100030621e-01 1.193170975769299e-15 1.611793285771554e+00
-5.153240643296827e-01 1.125896485451069e-15 1.198912751979826e+00
-5.153240643296829e-01 1.142041588932694e-15 1.198912751979825e+00
-6.655875717462604e-01 1.430496732572626e-15 1.662700845565542e+00
-6.655875717462598e-01 1.395259975548159e-15 1.662700845565543e+00
-4.340078031335794e-01 9.893359095176097e-16 1.240739971349043e+00
-4.340078031335796e-01 1.041470940833292e-15 1.240739971349042e+00
-6.655875717462604e-01 1.430496732572626e-15 1.662700845565542e+00
-6.655875717462598e-01 1.395259975548159e-15 1.662700845565543e+00
-4.340078031335794e-01 9.893359095176097e-16 1.240739971349043e+00
-4.340078031335796e-01 1.041470940833292e-15 1.240739971349042e+00
-5.784871668941064e-01 1.277723303142946e-15 1.713599369138397e+00
-5.784871668941057e-01 1.610220706664502e-15 1.713599369138398e+00
-3.526853901250344e-01 1.028615535493701e-15 1.282575984262292e+00
-3.526853901250344e-01 1.187000456777657e-15 1.282575984262292e+00
-1.030956567377045e+00 1.958190787833729e-15 2.050154549034778e+00
-1.030956567377045e+00 1.658856656721184e-15 2.050154549034778e+00
-7.526934100030621e-01 1.193170975769299e-15 1.611793285771554e+00
-7.526934100030624e-01 1.625622061222122e-15 1.611793285771553e+00
-9.398313439078552e-01 1.729528623787468e-15 2.108989913269147e+00
-9.398313439078551e-01 1.836861421871179e-15 2.108989913269148e+00
-6.655875717462598e-01 1.395259975548159e-15 1.662700845565543e+00
-6.655875717462604e-01 1.430496732572626e-15 1.662700845565542e+00
-9.398313439078552e-01 1.729528623787468e-15 2.108989913269147e+00
-9.398313439078551e-01 1.836861421871179e-15 2.108989913269148e+00
-6.655875717462598e-01 1.395259975548159e-15 1.662700845565543e+00
-6.655875717462604e-01 1.430496732572626e-15 1.662700845565542e+00
-8.487038667194321e-01 1.966156255979941e-15 2.167830332315723e+00
-8.487038667194319e-01 1.943293190315484e-15 2.167830332315723e+00
-5.784871668941057e-01 1.610220706664502e-15 1.713599369138398e+00
-5.784871668941064e-01 1.277723303142946e-15 1.713599369138397e+00
-1.344871485358107e+00 2.347239282172909e-15 2.506510390245663e+00
-1.344871485358106e+00 2.102383230638974e-15 2.506510390245663e+00
-1.030956567377045e+00 1.658856656721184e-15 2.050154549034778e+00
-1.030956567377045e+00 1.958190787833729e-15 2.050154549034778e+00
-1.250968657562930e+00 2.301693969182355e-15 2.572143372709346e+00
-1.250968657562928e+00 2.216497876287537e-15 2.572143372709346e+00
-9.398313439078551e-01 1.836861421871179e-15 2.108989913269148e+00
-9.398313439078552e-01 1.729528623787468e-15 2.108989913269147e+00
-1.250968657562930e+00 2.301693969182355e-15 2.572143372709346e+00
-1.250968657562928e+00 2.216497876287537e-15 2.572143372709346e+00
-9.398313439078551e-01 1.836861421871179e-15 2.108989913269148e+00
-9.398313439078552e-01 1.729528623787468e-15 2.108989913269147e+00
-1.157067743110705e+00 2.284127447250295e-15 2.637771411711936e+00
-1.157067743110704e+00 2.318230741130202e-15 2.637771411711936e+00
-8.487038667194319e-01 1.943293190315484e-15 2.167830332315723e+00
-8.487038667194321e-01 1.966156255979941e-15 2.167830332315723e+00
-1.689256855040674e+00 2.276112968048239e-15 2.975534639683924e+00
-1.689256855040673e+00 2.301912629166979e-15 2.975534639683924e+00
-1.344871485358106e+00 2.102383230638974e-15 2.506510390245663e+00
-1.344871485358107e+00 2.347239282172909e-15 2.506510390245663e+00
-1.593450462844414e+00 2.617842498014871e-15 3.046892461739578e+00
-1.593450462844413e+00 2.460116127700204e-15 3.046892461739578e+00
-1.250968657562928e+00 2.216497876287537e-15 2.572143372709346e+00
-1.250968657562930e+00 2.301693969182355e-15 2.572143372709346e+00
-1.593450462844414e+00 2.617842498014871e-15 3.046892461739578e+00
-1.593450462844413e+00 2.460116127700204e-15 3.046892461739578e+00
-1.250968657562928e+00 2.216497876287537e-15 2.572143372709346e+00
-1.250968657562930e+00 2.301693969182355e-15 2.572143372709346e+00
-1.497643262009373e+00 2.566909139507419e-15 3.118253008260253e+00
-1.497643262009372e+00 2.519151089659844e-15 3.118253008260253e+00
-1.157067743110704e+00 2.318230741130202e-15 2.637771411711936e+00
-1.157067743110705e+00 2.284127447250295e-15 2.637771411711936e+00
-2.059329812546330e+00 2.830444674233393e-15 3.453449550468725e+00
-2.059329812546329e+00 2.726271301447335e-15 3.453449550468724e+00
-1.689256855040673e+00 2.301912629166979e-15 2.975534639683924e+00
-1.689256855040674e+00 2.276112968048239e-15 2.975534639683924e+00
-1.962220696825332e+00 2.686700691079556e-15 3.529589783561960e+00
-1.962220696825331e+00 2.767243876595629e-15 3.529589783561960e+00
-1.593450462844413e+00 2.460116127700204e-15 3.046892461739578e+00
-1.593450462844414e+00 2.617842498014871e-15 3.046892461739578e+00
-1.962220696825332e+00 2.686700691079556e-15 3.529589783561960e+00
-1.962220696825331e+00 2.767243876595629e-15 3.529589783561960e+00
-1.593450462844413e+00 2.460116127700204e-15 3.046892461739578e+00
-1.593450462844414e+00 2.617842498014871e-15 3.046892461739578e+00
-1.865112245774774e+00 2.805669829985795e-15 3.605727443031208e+00
-1.865112245774772e+00 2.818605126708483e-15 3.605727443031208e+00
-1.497643262009372e+00 2.519151089659844e-15 3.118253008260253e+00
-1.497643262009373e+00 2.566909139507419e-15 3.118253008260253e+00
-2.450827530681152e+00 2.837368000051878e-15 3.937617382369999e+00
-2.450827530681150e+00 2.645189476960637e-15 3.937617382369999e+00
-2.059329812546329e+00 2.726271301447335e-15 3.453449550468724e+00
-2.059329812546330e+00 2.830444674233393e-15 3.453449550468725e+00
-2.352831032167722e+00 2.850171464353309e-15 4.017708909469899e+00
-2.352831032167721e+00 3.045120830029551e-15 4.017708909469899e+00
-1.962220696825331e+00 2.767243876595629e-15 3.529589783561960e+00
-1.962220696825332e+00 2.686700691079556e-15 3.529589783561960e+00
-2.352831032167722e+00 2.850171464353309e-15 4.017708909469899e+00
-2.352831032167721e+00 3.045120830029551e-15 4.017708909469899e+00
-1.962220696825331e+00 2.767243876595629e-15 3.529589783561960e+00
-1.962220696825332e+00 2.686700691079556e-15 3.529589783561960e+00
-2.254834243529821e+00 3.197983417412631e-15 4.097801867738429e+00
-2.254834243529820e+00 3.265286545276576e-15 4.097801867738430e+00
-1.865112245774772e+00 2.818605126708483e-15 3.605727443031208e+00
-1.865112245774774e+00 2.805669829985795e-15 3.605727443031208e+00
-2.860034925704323e+00 3.321124607982772e-15 4.426187537814527e+00
-2.860034925704322e+00 3.333697284989291e-15 4.426187537814528e+00
-2.450827530681150e+00 2.645189476960637e-15 3.937617382369999e+00
-2.450827530681152e+00 2.837368000051878e-15 3.937617382369999e+00
-2.761434249927316e+00 3.336918304748088e-15 4.509524027032021e+00
-2.761434249927315e+00 3.204605502845343e-15 4.509524027032021e+00
-2.352831032167721e+00 3.045120830029551e-15 4.017708909469899e+00
-2.352831032167722e+00 2.850171464353309e-15 4.017708909469899e+00
-2.761434249927316e+00 3.336918304748088e-15 4.509524027032021e+00
-2.761434249927315e+00 3.204605502845343e-15 4.509524027032021e+00
-2.352831032167721e+00 3.045120830029551e-15 4.017708909469899e+00
-2.352831032167722e+00 2.850171464353309e-15 4.017708909469899e+00
-2.662833806245439e+00 3.538911266283015e-15 4.592859201557403e+00
-2.662833806245438e+00 3.562855249333605e-15 4.592859201557403e+00
-2.254834243529820e+00 3.265286545276576e-15 4.097801867738430e+00
-2.254834243529821e+00 3.197983417412631e-15 4.097801867738429e+00
-3.283750241682242e+00 3.512710455623039e-15 4.917875688220331e+00
-3.283750241682239e+00 3.455456867751622e-15 4.917875688220330e+00
-2.860034925704322e+00 3.333697284989291e-15 4.426187537814528e+00
-2.860034925704323e+00 3.321124607982772e-15 4.426187537814527e+00
-3.184739593135383e+00 3.596475459452936e-15 5.003849022092926e+00
-3.184739593135381e+00 3.518532175172737e-15 5.003849022092926e+00
-2.761434249927315e+00 3.204605502845343e-15 4.509524027032021e+00
-2.761434249927316e+00 3.336918304748088e-15 4.509524027032021e+00
-3.184739593135383e+00 3.596475459452936e-15 5.003849022092926e+00
-3.184739593135381e+00 3.518532175172737e-15 5.003849022092926e+00
-2.761434249927315e+00 3.204605502845343e-15 4.509524027032021e+00
-2.761434249927316e+00 3.336918304748088e-15 4.509524027032021e+00
-3.085728838598188e+00 4.103579188073015e-15 5.089823102046176e+00
-3.085728838598185e+00 3.955249157299363e-15 5.089823102046176e+00
-2.662833806245438e+00 3.562855249333605e-15 4.592859201557403e+00
-2.662833806245439e+00 3.538911266283015e-15 4.592859201557403e+00
-3.719228792833522e+00 3.723803924952075e-15 5.411782339854510e+00
-3.719228792833520e+00 3.678864047739990e-15 5.411782339854510e+00
-3.283750241682239e+00 3.455456867751622e-15 4.917875688220330e+00
-3.283750241682242e+00 3.512710455623039e-15 4.917875688220331e+00
-3.619940390785273e+00 4.157358148690812e-15 5.499877864058003e+00
-3.619940390785271e+00 3.863751345434200e-15 5.499877864058003e+00
-3.184739593135381e+00 3.518532175172737e-15 5.003849022092926e+00
-3.184739593135383e+00 3.596475459452936e-15 5.003849022092926e+00
-3.619940390785273e+00 4.157358148690812e-15 5.499877864058003e+00
-3.619940390785271e+00 3.863751345434200e-15 5.499877864058003e+00
-3.184739593135381e+00 3.518532175172737e-15 5.003849022092926e+00
-3.184739593135383e+00 3.596475459452936e-15 5.003849022092926e+00
-3.520652071996976e+00 3.976626504640598e-15 5.587972717865343e+00
-3.520652071996974e+00 3.948471197172500e-15 5.587972717865343e+00
-3.085728838598185e+00 3.955249157299363e-15 5.089823102046176e+00
-3.085728838598188e+00 4.103579188073015e-15 5.089823102046176e+00
-4.164115915303999e+00 3.381454516659245e-15 5.907282674984008e+00
-4.164115915303995e+00 3.521796813268771e-15 5.907282674984007e+00
-3.719228792833520e+00 3.678864047739990e-15 5.411782339854510e+00
-3.719228792833522e+00 3.723803924952075e-15 5.411782339854510e+00
-4.064640384194136e+00 4.057613304800198e-15 5.997057035722231e+00
-4.064640384194133e+00 3.878960564540278e-15 5.997057035722231e+00
-3.619940390785271e+00 3.863751345434200e-15 5.499877864058003e+00
-3.619940390785273e+00 4.157358148690812e-15 5.499877864058003e+00
-4.064640384194136e+00 4.057613304800198e-15 5.997057035722231e+00
-4.064640384194133e+00 3.878960564540278e-15 5.997057035722231e+00
-3.619940390785271e+00 3.863751345434200e-15 5.499877864058003e+00
-3.619940390785273e+00 4.157358148690812e-15 5.499877864058003e+00
-3.965164812297125e+00 4.361288063806542e-15 6.086831790417039e+00
-3.965164812297122e+00 4.192524378133377e-15 6.086831790417039e+00
-3.520652071996974e+00 3.948471197172500e-15 5.587972717865343e+00
-3.520652071996976e+00 3.976626504640598e-15 5.587972717865343e+00
-4.616380102189154e+00 3.651958809317315e-15 6.403937231094723e+00
-4.616380102189151e+00 3.216390489232715e-15 6.403937231094721e+00
-4.164115915303995e+00 3.521796813268771e-15 5.907282674984007e+00
-4.164115915303999e+00 3.381454516659245e-15 5.907282674984008e+00
-4.516779600706081e+00 3.754617217065067e-15 6.495009404320995e+00
-4.516779600706077e+00 3.747563477473928e-15 6.495009404320993e+00
-4.064640384194133e+00 3.878960564540278e-15 5.997057035722231e+00
-4.064640384194136e+00 4.057613304800198e-15 5.997057035722231e+00
-4.516779600706081e+00 3.754617217065067e-15 6.495009404320995e+00
-4.516779600706077e+00 3.747563477473928e-15 6.495009404320993e+00
-4.064640384194133e+00 3.878960564540278e-15 5.997057035722231e+00
-4.064640384194136e+00 4.057613304800198e-15 5.997057035722231e+00
-4.417179131303858e+00 4.139769448306676e-15 6.586081227757068e+00
-4.417179131303855e+00 4.257737276533047e-15 6.586081227757067e+00
-3.965164812297122e+00 4.192524378133377e-15 6.086831790417039e+00
-3.965164812297125e+00 4.361288063806542e-15 6.086831790417039e+00
-5.074249035881569e+00 3.230803349363627e-15 6.901438465422204e+00
-5.074249035881565e+00 3.296566809020987e-15 6.901438465422203e+00
-4.616380102189151e+00 3.216390489232715e-15 6.403937231094721e+00
-4.616380102189154e+00 3.651958809317315e-15 6.403937231094723e+00
-4.974566859299252e+00 3.529122344870721e-15 6.993473034377168e+00
-4.974566859299248e+00 3.463391504032349e-15 6.993473034377167e+00
-4.516779600706077e+00 3.747563477473928e-15 6.495009404320993e+00
-4.516779600706081e+00 3.754617217065067e-15 6.495009404320995e+00
-4.974566859299252e+00 3.529122344870721e-15 6.993473034377168e+00
-4.974566859299248e+00 3.463391504032349e-15 6.993473034377167e+00
-4.516779600706077e+00 3.747563477473928e-15 6.495009404320993e+00
-4.516779600706081e+00 3.754617217065067e-15 6.495009404320995e+00
-4.874884664813148e+00 4.133188671954691e-15 7.085507825514127e+00
-4.874884664813145e+00 3.896818062582961e-15 7.085507825514126e+00
-4.417179131303855e+00 4.257737276533047e-15 6.586081227757067e+00
-4.417179131303858e+00 4.139769448306676e-15 6.586081227757068e+00
-5.536150266925237e+00 3.217675534610436e-15 7.399566935063596e+00
-5.536150266925232e+00 3.068857782320693e-15 7.399566935063596e+00
-5.074249035881565e+00 3.296566809020987e-15 6.901438465422203e+00
-5.074249035881569e+00 3.230803349363627e-15 6.901438465422204e+00
-5.436417251152140e+00 3.743494093140666e-15 7.492264992421062e+00
-5.436417251152135e+00 3.788003647012965e-15 7.492264992421062e+00
-4.974566859299248e+00 3.463391504032349e-15 6.993473034377167e+00
-4.974566859299252e+00 3.529122344870721e-15 6.993473034377168e+00
-5.436417251152140e+00 3.743494093140666e-15 7.492264992421062e+00
-5.436417251152135e+00 3.788003647012965e-15 7.492264992421062e+00
-4.974566859299248e+00 3.463391504032349e-15 6.993473034377167e+00
-4.974566859299252e+00 3.529122344870721e-15 6.993473034377168e+00
-5.336684250147582e+00 4.575431027279549e-15 7.584962849778866e+00
-5.336684250147577e+00 4.468747356419428e-15 7.584962849778867e+00
-4.874884664813145e+00 3.896818062582961e-15 7.085507825514126e+00
-4.874884664813148e+00 4.133188671954691e-15 7.085507825514127e+00
-6.000656330932827e+00 3.816925555635661e-15 7.898164926355789e+00
-6.000656330932821e+00 3.971200204071574e-15 7.898164926355789e+00
-5.536150266925232e+00 3.068857782320693e-15 7.399566935063596e+00
-5.536150266925237e+00 3.217675534610436e-15 7.399566935063596e+00
-5.900895620449603e+00 4.673000436226131e-15 7.991251181574538e+00
-5.900895620449597e+00 4.221848020988782e-15 7.991251181574539e+00
-5.436417251152135e+00 3.788003647012965e-15 7.492264992421062e+00
-5.436417251152140e+00 3.743494093140666e-15 7.492264992421062e+00
-5.900895620449603e+00 4.673000436226131e-15 7.991251181574538e+00