<?xml version="1.0"?>
<VTKFile type="UnstructuredGrid" version="0.1" byte_order="LittleEndian" header_type="UInt32" compressor="vtkZLibDataCompressor">
  <UnstructuredGrid>
    <FieldData>
      <DataArray type="Float64" Name="TIME" NumberOfTuples="1" format="ascii" RangeMin="0" RangeMax="0">
        0
      </DataArray>
    </FieldData>
    <Piece NumberOfPoints="210" NumberOfCells="10">
      <PointData>
        <DataArray type="Float64" Name="axial_strain" format="ascii" RangeMin="-9.37028232783632e-16" RangeMax="5.551115123125783e-16">
          -2.220446049250313e-16 -2.731148640577885e-16 -3.1530333899354444e-16 -3.486100297322991e-16 -3.730349362740526e-16 -3.885780586188048e-16
          -3.9523939676655573e-16 -3.930189507173054e-16 -3.819167204710538e-16 -3.61932706027801e-16 -3.3306690738754696e-16 -2.953193245502916e-16
          -2.486899575160351e-16 -1.931788062847772e-16 -1.2878587085651822e-16 -5.551115123125783e-17 2.664535259100383e-17 1.1768364061026653e-16
          2.1760371282653078e-16 3.264055692397959e-16 4.440892098500626e-16 -1.1102230246251565e-16 -1.3822276656583198e-16 -1.6431300764452314e-16
          -1.8929302569858922e-16 -2.1316282072803007e-16 -2.3592239273284576e-16 -2.575717417130363e-16 -2.781108676686017e-16 -2.9753977059954197e-16
          -3.1585845050585706e-16 -3.3306690738754696e-16 -3.491651412446118e-16 -3.641531520770513e-16 -3.7803093988486583e-16 -3.9079850466805505e-16
          -4.0245584642661925e-16 -4.1300296516055825e-16 -4.2243986086987203e-16 -4.3076653355456073e-16 -4.3798298321462424e-16 -4.440892098500626e-16
          4.440892098500626e-16 3.969047313034935e-16 3.552713678800501e-16 3.191891195797325e-16 2.8865798640254066e-16 2.636779683484747e-16
          2.4424906541753446e-16 2.3037127760972e-16 2.2204460492503128e-16 2.192690473634684e-16 2.220446049250313e-16 2.3037127760971995e-16
          2.4424906541753446e-16 2.636779683484747e-16 2.886579864025407e-16 3.191891195797325e-16 3.552713678800501e-16 3.969047313034935e-16
          4.440892098500626e-16 4.968248035197575e-16 5.551115123125783e-16 -7.771561172376096e-16 -8.232303727595536e-16 -8.615330671091215e-16
          -8.920642002863133e-16 -9.14823772291129e-16 -9.298117831235686e-16 -9.37028232783632e-16 -9.364731212713196e-16 -9.281464485866308e-16
          -9.12048214729566e-16 -8.881784197001252e-16 -8.565370634983083e-16 -8.171241461241152e-16 -7.69939667577546e-16 -7.149836278586009e-16
          -6.522560269672795e-16 -5.817568649035821e-16 -5.034861416675085e-16 -4.1744385725905884e-16 -3.236300116782332e-16 -2.220446049250313e-16
          -4.440892098500626e-16 -3.658184866139891e-16 -2.97539770599542e-16 -2.392530618067212e-16 -1.9095836023552692e-16 -1.5265566588595902e-16
          -1.2434497875801754e-16 -1.0602629885170246e-16 -9.769962616701378e-17 -9.936496070395151e-17 -1.1102230246251565e-16 -1.3267165144270624e-16
          -1.6431300764452314e-16 -2.0594637106796659e-16 -2.5757174171303625e-16 -3.191891195797325e-16 -3.9079850466805515e-16 -4.72399896978004e-16
          -5.639932965095796e-16 -6.655787032627813e-16 -7.771561172376096e-16 2.220446049250313e-16 1.7985612998927537e-16 1.4210854715202006e-16
          1.0880185641326533e-16 7.993605777301127e-17 5.551115123125783e-17 3.5527136788005016e-17 1.9984014443252823e-17 8.881784197001248e-18
          2.220446049250312e-18 0 2.220446049250317e-18 8.881784197001248e-18 1.9984014443252823e-17 3.552713678800499e-17
          5.551115123125783e-17 7.993605777301129e-17 1.0880185641326533e-16 1.4210854715202006e-16 1.7985612998927532e-16 2.220446049250313e-16
          -4.440892098500626e-16 -3.497202527569244e-16 -2.664535259100376e-16 -1.9428902930940237e-16 -1.3322676295501876e-16 -8.326672684688674e-17
          -4.4408920985006276e-17 -1.6653345369377357e-17 6.162975822039155e-33 5.551115123125783e-18 0 -1.665334536937737e-17
          -4.4408920985006246e-17 -8.326672684688677e-17 -1.3322676295501873e-16 -1.942890293094024e-16 -2.664535259100376e-16 -3.4972025275692425e-16
          -4.440892098500627e-16 -5.495603971894524e-16 -6.661338147750939e-16 -3.3306690738754696e-16 -3.6415315207705137e-16 -3.9079850466805505e-16
          -4.1300296516055825e-16 -4.3076653355456073e-16 -4.440892098500626e-16 -4.529709940470639e-16 -4.574118861455645e-16 -4.574118861455645e-16
          -4.529709940470639e-16 -4.440892098500626e-16 -4.3076653355456073e-16 -4.130029651605582e-16 -3.907985046680551e-16 -3.6415315207705137e-16
          -3.3306690738754696e-16 -2.975397705995419e-16 -2.575717417130363e-16 -2.1316282072803005e-16 -1.6431300764452322e-16 -1.1102230246251565e-16
          0 -5.218048215738233e-17 -9.769962616701371e-17 -1.365574320288943e-16 -1.687538997430238e-16 -1.942890293094024e-16
          -2.1316282072803005e-16 -2.2537527399890676e-16 -2.3092638912203257e-16 -2.2981616609740744e-16 -2.220446049250313e-16 -2.0761170560490426e-16
          -1.8651746813702632e-16 -1.5876189252139738e-16 -1.2434497875801757e-16 -8.326672684688674e-17 -3.5527136788004967e-17 1.887379141862763e-17
          7.993605777301132e-17 1.4765966227514578e-16 2.220446049250313e-16 -2.220446049250313e-16 -1.9984014443252818e-16 -1.7763568394002506e-16
          -1.554312234475219e-16 -1.3322676295501878e-16 -1.1102230246251565e-16 -8.881784197001253e-17 -6.66133814775094e-17 -4.440892098500625e-17
          -2.2204460492503126e-17 0 2.220446049250315e-17 4.440892098500625e-17 6.66133814775094e-17 8.88178419700125e-17
          1.1102230246251565e-16 1.332267629550188e-16 1.554312234475219e-16 1.7763568394002506e-16 1.9984014443252816e-16 2.220446049250313e-16
        </DataArray>
        <DataArray type="Float64" Name="base_vector_1" NumberOfComponents="3" format="ascii" RangeMin="0.9999999999999994" RangeMax="1.0000000000000009">
          -1.3393730569077889e-12 0.956992002436764 0.2901143003577611 -0.01503177704840919 0.9568739407086421 0.2901143003567423
          -0.03005984522942584 0.956519784653628 0.29011430035584346 -0.04508049659343527 0.9559296216544295 0.29011430035506586
          -0.06009002501947114 0.9551035973249347 0.29011430035441016 -0.0750847271309858 0.9540419154742871 0.2901143003538768
          -0.09006090320960314 0.9527448380565964 0.29011430035346647 -0.10501485810796796 0.9512126851063067 0.2901143003531794
          -0.11994290216146863 0.9494458346592316 0.29011430035301605 -0.1348413520986087 0.9474447226592814 0.2901143003529773
          -0.1497065319497939 0.9452098428508979 0.2901143003530628 -0.16453477395432858 0.9427417466572326 0.2901143003532732
          -0.1793224194653762 0.9400410430440901 0.29011430035360875 -0.19406581985267835 0.9371083983696749 0.2901143003540688
          -0.20876133740279945 0.9339445362201788 0.2901143003546544 -0.22340534621667651 0.9305502372312443 0.29011430035536523
          -0.23799423310425616 0.9269263388953568 0.29011430035620106 -0.2525243984759973 0.9230737353552052 0.29011430035716174
          -0.2669922572310117 0.9189933771830651 0.2901143003582473 -0.2813942396416378 0.914686271146259 0.2901143003594575
          -0.2957267922342175 0.9101534799587535 0.2901143003607917 -0.29572679223421705 0.9101534799587532 0.2901143003607919
          -0.30998637866607726 0.9053961220196903 0.29011430035969865 -0.32416948059743866 0.9004153711352132 0.29011430035870744
          -0.3382725985601267 0.8952124562310739 0.2901143003578191 -0.3522922528208108 0.8897886610486707 0.290114300357033
          -0.3662249842395835 0.8841453238283074 0.2901143003563503 -0.3800673551234439 0.8782838369789985 0.29011430035577024
          -0.3938159500745049 0.8722056467349165 0.2901143003552938 -0.4074673768326844 0.8659122527985536 0.29011430035492053
          -0.4210182671127005 0.859405207970693 0.29011430035465047 -0.4344652774351414 0.8526861177672791 0.29011430035448343
          -0.44780508995142077 0.8457566400232783 0.29011430035441976 -0.46103441326240713 0.8386184844836361 0.290114300354459
          -0.4741499832305265 0.8312734123814207 0.2901143003546012 -0.4871485637851407 0.8237232360032665 0.29011430035484553
          -0.5000269477209986 0.8159698182422181 0.2901143003551924 -0.5127819574895662 0.8080150721380917 0.29011430035564123
          -0.5254104459830389 0.7998609604054576 0.2901143003561914 -0.5379092973108441 0.7915094949493737 0.2901143003568428
          -0.5502754275684403 0.7829627363689755 0.2901143003575949 -0.5625057855982218 0.7742227934490535 0.2901143003584467
          -0.5625057855982223 0.7742227934490541 0.290114300358447 -0.5745973537417379 0.7652918226409657 0.2901143003573966
          -0.5865471485861473 0.7561720275268988 0.2901143003564619 -0.5983522216983799 0.7468656582798336 0.2901143003556426
          -0.6100096603532861 0.7373750111071256 0.2901143003549378 -0.6215165882523102 0.7277024276839512 0.2901143003543476
          -0.6328701662331724 0.7178502945755347 0.2901143003538714 -0.6440675929703903 0.707821042648298 0.2901143003535084
          -0.6551061056664647 0.6976171464700816 0.29011430035325836 -0.6659829807335591 0.6872411236995817 0.29011430035312036
          -0.6766955344655035 0.6766955344651557 0.2901143003530938 -0.6872411236999558 0.6659829807331489 0.2901143003531782
          -0.6976171464705672 0.6551061056658973 0.29011430035337205 -0.7078210426489768 0.6440675929695686 0.290114300353675
          -0.7178502945764842 0.6328701662319967 0.2901143003540862 -0.7277024276852444 0.6215165882506765 0.2901143003546044
          -0.7373750111088311 0.610009660351087 0.29011430035522867 -0.7468656582820157 0.5983522216955042 0.29011430035595775
          -0.7561720275296173 0.5865471485824811 0.2901143003567911 -0.7652918226442746 0.5745973537371647 0.2901143003577269
          -0.7742227934530037 0.5625057855926231 0.29011430035876407 -0.7742227934530026 0.5625057855926228 0.2901143003587637
          -0.7829627363721912 0.5502754275634869 0.2901143003583119 -0.7915094949519408 0.5379092973064898 0.290114300357916
          -0.7998609604074567 0.5254104459792323 0.2901143003575755 -0.8080150721396016 0.5127819574862537 0.29011430035729013
          -0.8159698182433162 0.5000269477181242 0.29011430035705965 -0.823723236004025 0.48714856378264526 0.29011430035688324
          -0.8312734123819094 0.47414998322834834 0.2901143003567601 -0.8386184844839226 0.461034413260482 0.2901143003566903
          -0.8457566400234262 0.44780508994968204 0.2901143003566725 -0.8526861177673488 0.43446527743352004 0.2901143003567069
          -0.8594052079707422 0.42101826711112517 0.2901143003567922 -0.8659122527986354 0.4074673768310816 0.29011430035692787
          -0.8722056467350812 0.39381595007279874 0.29011430035711333 -0.8782838369792938 0.380067355121558 0.29011430035734787
          -0.8841453238287758 0.36622498423743766 0.2901143003576306 -0.8897886610493533 0.35229225281832527 0.2901143003579608
          -0.8952124562320052 0.3382725985572178 0.29011430035833774 -0.9004153711364262 0.3241694805940231 0.29011430035876046
          -0.9053961220212137 0.3099863786620689 0.29011430035922847 -0.9101534799606115 0.29572679222952974 0.2901143003597404
          -0.910153479960611 0.29572679222952986 0.29011430035974045 -0.9146862711475365 0.28139423963647964 0.2901143003604326
          -0.9189933771837988 0.26699225722547815 0.2901143003610133 -0.9230737353554366 0.252524398470184 0.29011430036148284
          -0.926926338895131 0.23799423309825823 0.2901143003618404 -0.9305502372306096 0.2234053462105873 0.2901143003620861
          -0.9339445362191885 0.20876133739671254 0.2901143003622198 -0.9371083983683857 0.1940658198466858 0.2901143003622412
          -0.9400410430425614 0.17932241945956884 0.29011430036215036 -0.9427417466555288 0.16453477394879673 0.2901143003619473
          -0.9452098428490856 0.14970653194462688 0.290114300361632 -0.9474447226574325 0.13484135209389353 0.2901143003612048
          -0.9494458346574217 0.1199429021572921 0.2901143003606656 -0.9512126851046134 0.10501485810441358 0.29011430036001484
          -0.9527448380551031 0.09006090320675414 0.2901143003592527 -0.9540419154730797 0.07508472712892332 0.29011430035837954
          -0.9551035973241029 0.06009002501827408 0.2901143003573959 -0.9559296216540658 0.04508049659318082 0.29011430035630204
          -0.9565197846538298 0.030059845230188897 0.2901143003550986 -0.956873940709509 0.015031777050262124 0.29011430035378605
          -0.9569920024383998 4.352879168223467e-12 0.2901143003523651 -0.9569920024383995 4.352934679374698e-12 0.2901143003523651
          -0.9568739407098266 -0.015031777043491207 0.29011430035308855 -0.9565197846543887 -0.030059845225236997 0.2901143003537693
          -0.9559296216547946 -0.04508049658993038 0.2901143003544071 -0.9551035973249353 -0.06009002501660603 0.29011430035500185
          -0.9540419154739554 -0.07508472712871715 0.29011430035555347 -0.9527448380559678 -0.0900609032078884 0.2901143003560619
          -0.9512126851054181 -0.10501485810676572 0.290114300356527 -0.9494458346581223 -0.11994290216073882 0.2901143003569488
          -0.9474447226579912 -0.1348413520983108 0.2901143003573271 -0.9452098428494708 -0.14970653194989034 0.29011430035766206
          -0.9427417466557126 -0.16453477395478175 0.29011430035795366 -0.9400410430425246 -0.17932241946615052 0.29011430035820196
          -0.9371083983681123 -0.1940658198537394 0.2901143003584069 -0.9339445362186689 -0.20876133740411368 0.29011430035856867
          -0.9305502372298395 -0.22340534621821184 0.29011430035868735 -0.9269263388941111 -0.23799423310598278 0.29011430035876296
          -0.9230737353541749 -0.25252439847788577 0.29011430035879576 -0.9189933771823067 -0.2669922572330354 0.2901143003587859
          -0.9146862711458319 -0.28139423964377164 0.2901143003587334 -0.9101534799587183 -0.29572679223643716 0.29011430035863867
          -0.9101534799587183 -0.2957267922364371 0.29011430035863867 -0.9053961220200617 -0.3099863786669512 0.2901143003576071
          -0.9004153711359928 -0.32416948059708817 0.2901143003566834 -0.8952124562322565 -0.33827259855867087 0.29011430035586666
          -0.8897886610502495 -0.35229225281836973 0.2901143003551561 -0.8841453238302683 -0.36622498423627425 0.2901143003545507
          -0.878283836981324 -0.3800673551193844 0.29011430035404945 -0.8722056467375827 -0.39381595006980974 0.29011430035365104
          -0.8659122528015328 -0.40746737682746825 0.2901143003533548 -0.8594052079739529 -0.4210182671070753 0.29011430035315944
          -0.852686117770781 -0.43446527742921726 0.29011430035306346 -0.8457566400269805 -0.4478050899453062 0.29011430035306585
          -0.838618484487492 -0.4610344132562083 0.2901143003531653 -0.8312734123853787 -0.47414998322434737 0.2901143003533603
          -0.8237232360072704 -0.487148563779083 0.2901143003536497 -0.8159698182462085 -0.5000269477151612 0.2901143003540319
          -0.8080150721420036 -0.5127819574840455 0.29011430035450525 -0.7998609604092222 -0.5254104459779285 0.29011430035506847
          -0.7915094949529182 -0.5379092973062346 0.2901143003557197 -0.7829627363722236 -0.5502754275644186 0.2901143003564578
          -0.7742227934519237 -0.5625057855948729 0.2901143003572806 -0.7742227934519239 -0.5625057855948729 0.2901143003572806
          -0.7652918226436112 -0.5745973537384282 0.29011430035697294 -0.7561720275293213 -0.5865471485828985 0.2901143003567138
          -0.7468656582820357 -0.5983522216952128 0.2901143003565031 -0.7373750111091095 -0.6100096603502216 0.29011430035633945
          -0.7277024276857165 -0.6215165882493681 0.29011430035622177 -0.7178502945770817 -0.632870166230373 0.2901143003561488
          -0.7078210426496252 -0.644067592967754 0.29011430035612007 -0.6976171464711878 -0.6551061056640124 0.2901143003561338
          -0.6872411237004652 -0.6659829807313105 0.2901143003561894 -0.676695534465813 -0.6766955344634769 0.2901143003562851
          -0.6659829807335766 -0.6872411236981711 0.2901143003564204 -0.6551061056660923 -0.6976171464690438 0.2901143003565935
          -0.6440675929695252 -0.7078210426477332 0.29011430035680374 -0.6328701662317098 -0.7178502945755387 0.29011430035704966
          -0.6215165882501403 -0.727702427684615 0.2901143003573299 -0.6100096603502947 -0.7373750111085354 0.2901143003576432
          -0.598352221694449 -0.7468656582820712 0.29011430035798846 -0.5865471485811553 -0.7561720275300408 0.2901143003583644
          -0.5745973537355595 -0.7652918226450831 0.2901143003587694 -0.5625057855907305 -0.7742227934542132 0.29011430035920216
          -0.5625057855907307 -0.7742227934542133 0.2901143003592024 -0.5502754275620783 -0.7829627363730938 0.29011430035854896
          -0.5379092973055526 -0.7915094949525612 0.2901143003579598 -0.5254104459787552 -0.7998609604078212 0.29011430035743446
          -0.512781957486224 -0.8080150721397344 0.2901143003569735 -0.5000269477185284 -0.8159698182432404 0.29011430035657576
          -0.4871485637834687 -0.8237232360037638 0.2901143003562413 -0.47414998322957613 -0.8312734123814856 0.29011430035597024
          -0.46103441326209715 -0.8386184844833562 0.2901143003557616 -0.44780508995166857 -0.8457566400227374 0.2901143003556151
          -0.43446527743585994 -0.852686117766557 0.2901143003555307 -0.4210182671138001 -0.8594052079698655 0.29011430035550806
          -0.40746737683407197 -0.8659122527976912 0.29011430035554614 -0.3938159500760854 -0.8722056467340863 0.2901143003556448
          -0.38006735512512013 -0.8782838369782624 0.29011430035580354 -0.3662249842412546 -0.8841453238277229 0.29011430035602187
          -0.35229225282237553 -0.8897886610482912 0.290114300356299 -0.3382725985614794 -0.8952124562309471 0.2901143003566345
          -0.3241694805984734 -0.9004153711353824 0.2901143003570277 -0.309986378666685 -0.9053961220201938 0.29011430035747804
          -0.29572679223428877 -0.9101534799596251 0.29011430035798474 -0.29572679223428877 -0.9101534799596249 0.29011430035798486
          -0.28139423964074606 -0.9146862711469081 0.2901143003582755 -0.26699225722925024 -0.9189933771834895 0.2901143003585222
          -0.2525243984734611 -0.923073735355407 0.2901143003587261 -0.2379942331010403 -0.9269263388953415 0.2901143003588876
          -0.2234053462128749 -0.9305502372310209 0.29011430035900804 -0.20876133739850755 -0.9339445362197608 0.2901143003590879
          -0.19406581984799143 -0.9371083983690794 0.2901143003591284 -0.17932241946038818 -0.9400410430433372 0.29011430035913033
          -0.16453477394913474 -0.9427417466563474 0.2901143003590945 -0.14970653194448924 -0.9452098428499087 0.2901143003590223
          -0.13484135209328674 -0.9474447226582206 0.2901143003589143 -0.11994290215622305 -0.9494458346581357 0.2901143003587715
          -0.10501485810289046 -0.9512126851052151 0.2901143003585952 -0.09006090320478655 -0.9527448380555535 0.2901143003583864
          -0.07508472712652092 -0.9540419154733403 0.29011430035814584 -0.06009002501544791 -0.9551035973241355 0.2901143003578747
          -0.04508049658994251 -0.9559296216538328 0.29011430035757435 -0.030059845226551474 -0.9565197846532929 0.2901143003572455
          -0.015031777046239148 -0.9568739407086313 0.2901143003568896 4.107825191113079e-14 -0.9569920024371441 0.2901143003565075
          <InformationKey name="L2_NORM_RANGE" location="vtkDataArray" length="2">
            <Value index="0">
              1
            </Value>
            <Value index="1">
              1
            </Value>
          </InformationKey>
        </DataArray>
        <DataArray type="Float64" Name="base_vector_2" NumberOfComponents="3" format="ascii" RangeMin="0.9999999999999994" RangeMax="1.0000000000000007">
          1.8056667272503546e-12 -0.2901143003577613 0.956992002436764 0.004556917373868985 -0.2900785096754499 0.956992002437073
          0.009112710394766521 -0.2899711464615433 0.9569920024373453 0.013666254990743143 -0.28979223720630887 0.9569920024375813
          0.01821642764280923 -0.2895418260529268 0.9569920024377798 0.022762105663951093 -0.2892199747866022 0.9569920024379417
          0.02730216747613856 -0.28882676281931774 0.956992002438066 0.03183549288705695 -0.2883622871702425 0.9569920024381532
          0.03636096336649719 -0.28782666244179045 0.9569920024382026 0.04087746232233802 -0.28722002079135023 0.9569920024382145
          0.045383875376046545 -0.28654251189866886 0.9569920024381884 0.049879090637635404 -0.28579430292892827 0.9569920024381247
          0.054361998980005266 -0.2849755784914949 0.956992002438023 0.05883149431260465 -0.28408654059437044 0.9569920024378832
          0.06328647385434155 -0.2831274085943547 0.9569920024377059 0.06772583840567792 -0.28209841914291434 0.9569920024374905
          0.07214849261984169 -0.28099982612779817 0.9569920024372371 0.07655334527308533 -0.279831900610394 0.9569920024369458
          0.08093930953393136 -0.278594930758846 0.9569920024366168 0.08530530323132923 -0.2772892217769538 0.9569920024362497
          0.08965024912166686 -0.27591509582887075 0.9569920024358454 0.08965024912166658 -0.2759150958288705 0.9569920024358449
          0.09397307515390096 -0.27447289195714175 0.9569920024361764 0.09827271473601357 -0.2729629660064461 0.9569920024364766
          0.1025481069962772 -0.2713856905284193 0.9569920024367462 0.10679819704562787 -0.2697414546921806 0.956992002436984
          0.11102193623794288 -0.26803066418832167 0.9569920024371914 0.11521828242878046 -0.26625374112879574 0.9569920024373673
          0.1193862002325109 -0.26441112394278066 0.9569920024375118 0.12352466127778472 -0.2625032672684924 0.9569920024376248
          0.12763264446126577 -0.26053064184101715 0.9569920024377065 0.13170913619957475 -0.25849373437616086 0.9569920024377573
          0.13575313067937522 -0.2563930474503606 0.9569920024377766 0.13976363010554294 -0.2542290993766807 0.9569920024377647
          0.14373964494735664 -0.2520024240769274 0.9569920024377215 0.14768019418265094 -0.24971357094991053 0.9569920024376475
          0.15158430553986718 -0.24736310473589018 0.9569920024375425 0.15545101573794867 -0.24495160537723204 0.9569920024374063
          0.1592793707240152 -0.24247966787531716 0.9569920024372394 0.16306842590876025 -0.23994790214373496 0.9569920024370419
          0.16681724639951612 -0.23735693285779513 0.9569920024368141 0.170524907230923 -0.2347073993003972 0.9569920024365558
          0.17052490723092317 -0.23470739930039786 0.9569920024365561 0.1741904935918553 -0.23199995520277072 0.9569920024368745
          0.1778131010550133 -0.2292352685877963 0.9569920024371578 0.18139183579621382 -0.22641402160052615 0.9569920024374061
          0.18492581481621123 -0.22353691034143663 0.9569920024376197 0.1884141661585645 -0.22060464469467878 0.9569920024377987
          0.19185602912477923 -0.21761794815292324 0.9569920024379434 0.1952505544866725 -0.21457755763884734 0.9569920024380536
          0.1985969046959063 -0.21148422332331518 0.9569920024381291 0.20189425409064105 -0.20833870844028057 0.9569920024381707
          0.20514178909925504 -0.20514178909847214 0.956992002438179 0.2083387084410805 -0.20189425408989914 0.9569920024381536
          0.21148422332410838 -0.19859690469522784 0.9569920024380947 0.21457755763961014 -0.1952505544860812 0.9569920024380026
          0.2176179481536322 -0.19185602912429967 0.9569920024378782 0.22060464469531127 -0.1884141661582197 0.956992002437721
          0.2235369103419685 -0.18492581481602488 0.9569920024375318 0.22641402160093332 -0.18139183579620988 0.9569920024373108
          0.22923526858805582 -0.17781310105521597 0.9569920024370584 0.23199995520285868 -0.17419049359228844 0.9569920024367746
          0.23470739930029047 -0.1705249072316104 0.9569920024364602 0.2347073993002903 -0.1705249072316093 0.9569920024364595
          0.23735693285810983 -0.1668172464003157 0.9569920024365969 0.2399479021444278 -0.1630684259096511 0.956992002436717
          0.24247966787634298 -0.1592793707249749 0.9569920024368201 0.24495160537854513 -0.1554510157389568 0.9569920024369063
          0.24736310473744447 -0.15158430554090474 0.9569920024369766 0.24971357095165855 -0.1476801941836985 0.95699200243703
          0.25200242407882023 -0.14373964494839564 0.9569920024370671 0.25422909937866967 -0.1397636301065568 0.9569920024370884
          0.2563930474523952 -0.13575313068034722 0.9569920024370936 0.25849373437819023 -0.13170913620048985 0.9569920024370834
          0.2605306418429893 -0.12763264446210876 0.9569920024370574 0.26250326727035445 -0.12352466127854234 0.9569920024370164
          0.264411123944479 -0.1193862002331707 0.95699200243696 0.2662537411302769 -0.11521828242933063 0.9569920024368891
          0.26803066418952926 -0.11102193623837264 0.9569920024368033 0.26974145469306016 -0.10679819704592841 0.9569920024367033
          0.27138569052891226 -0.10254810699643979 0.956992002436589 0.27296296600649655 -0.09827271473603094 0.9569920024364608
          0.27447289195669045 -0.0939730751537673 0.9569920024363191 0.27591509582785917 -0.08965024912137709 0.9569920024361638
          0.2759150958278593 -0.08965024912137687 0.9569920024361637 0.2772892217779525 -0.08530530323139818 0.9569920024359541
          0.2785949307616238 -0.08093930953428186 0.9569920024357776 0.2798319006147196 -0.07655334527364777 0.9569920024356353
          0.28099982613343805 -0.07214849262055112 0.956992002435527 0.28209841914963424 -0.06772583840647495 0.9569920024354523
          0.2831274086019204 -0.06328647385517283 0.9569920024354118 0.28408654060254673 -0.058831494313422494 0.9569920024354056
          0.28497557850004457 -0.05436199898076732 0.9569920024354333 0.28579430293761615 -0.04987909063830509 0.9569920024354949
          0.2865425119072581 -0.045383875376592275 0.9569920024355902 0.28722002079960357 -0.040877462322735036 0.9569920024357198
          0.28782666244947175 -0.036360963366725896 0.9569920024358834 0.28836228717711365 -0.0318354928871023 0.9569920024360804
          0.2888267628251432 -0.027302167475992567 0.9569920024363114 0.2892199747911452 -0.02276210566361092 0.9569920024365762
          0.2895418260559517 -0.018216427642277377 0.9569920024368745 0.28979223720757974 -0.01366625499002816 0.9569920024372061
          0.28997114646082567 -0.009112710393881729 0.956992002437571 0.29007850967250914 -0.004556917372833702 0.9569920024379689
          0.2901143003523651 -6.448175327022909e-13 0.9569920024383995 0.2901143003523651 -6.445954880973659e-13 0.9569920024383995
          0.29007850967182847 0.004556917371756897 0.9569920024381803 0.2899711464595238 0.009112710392984558 0.9569920024379739
          0.289792237205718 0.013666254989279425 0.9569920024377807 0.2895418260535925 0.018216427641647548 0.9569920024376004
          0.28921997478835276 0.02276210566307235 0.956992002437433 0.28882676282198305 0.027302167475518058 0.956992002437279
          0.28836228717365275 0.03183549288666665 0.956992002437138 0.28782666244577837 0.036360963366305676 0.9569920024370102
          0.2872200207957474 0.040877462322309155 0.9569920024368953 0.28654251190331026 0.045383875376140304 0.9569920024367938
          0.2857943029336488 0.04987909063780882 0.9569920024367053 0.28497557849613114 0.054361998980210435 0.9569920024366303
          0.28408654059876187 0.058831494312790555 0.9569920024365681 0.28312740859834 0.0632864738544533 0.956992002436519
          0.28209841914633516 0.06772583840565771 0.956992002436483 0.28099982613049823 0.07214849261962641 0.95699200243646
          0.27983190061221785 0.07655334527260937 0.9569920024364502 0.2785949307596402 0.08093930953312534 0.9569920024364531
          0.2772892217765678 0.08530530323012031 0.956992002436469 0.2759150958271551 0.08965024911997854 0.9569920024364976
          0.27591509582715495 0.08965024911997888 0.9569920024364976 0.27447289195544533 0.09397307515239806 0.9569920024368107
          0.27296296600477543 0.09827271473467913 0.9569920024370908 0.27138569052677874 0.10254810699509542 0.956992002437338
          0.269741454690577 0.10679819704458116 0.9569920024375533 0.26803066418675814 0.11102193623701462 0.956992002437737
          0.2662537411272786 0.11521828242795351 0.9569920024378891 0.2644111239413133 0.11938620023176849 0.9569920024380099
          0.26250326726707973 0.1235246612771096 0.9569920024380996 0.2605306418396632 0.1276326444606406 0.9569920024381591
          0.25849373437486933 0.13170913619898195 0.9569920024381879 0.25639304744913494 0.1357531306787969 0.956992002438187
          0.2542290993755244 0.13976363010496073 0.9569920024381571 0.25200242407584345 0.14373964494675273 0.9569920024380979
          0.24971357094890248 0.14768019418200629 0.9569920024380103 0.24736310473496026 0.15158430553916347 0.9569920024378944
          0.244951605376383 0.15545101573716646 0.956992002437751 0.24247966787455205 0.15927937072313492 0.95699200243758
          0.23994790214305586 0.16306842590776205 0.9569920024373825 0.237356932857204 0.16681724639837958 0.9569920024371591
          0.2347073992998965 0.17052490722962854 0.9569920024369092 0.23470739929989656 0.17052490722962832 0.9569920024369094
          0.23199995520272512 0.17419049359120997 0.9569920024370029 0.22923526858815022 0.17781310105496806 0.9569920024370809
          0.22641402160122484 0.18139183579671792 0.9569920024371449 0.22353691034242723 0.18492581481721249 0.9569920024371948
          0.22060464469590893 0.18841416616000983 0.9569920024372304 0.21761794815434113 0.19185602912661404 0.9569920024372527
          0.21457755764040398 0.19525055448884188 0.9569920024372611 0.21148422332496225 0.19859690469835256 0.956992002437257
          0.20833870844197097 0.20189425409330652 0.9569920024372404 0.20514178910015973 0.20514178910208036 0.9569920024372112
          0.20189425409153924 0.20833870844400537 0.9569920024371702 0.19859690469677796 0.2114842233270714 0.9569920024371178