<?xml version="1.0"?>
<VTKFile type="UnstructuredGrid" version="0.1" byte_order="LittleEndian" header_type="UInt32" compressor="vtkZLibDataCompressor">
  <UnstructuredGrid>
    <FieldData>
      <DataArray type="Float64" Name="TIME" NumberOfTuples="1" format="ascii" RangeMin="3" RangeMax="3">
        3
      </DataArray>
    </FieldData>
    <Piece NumberOfPoints="210" NumberOfCells="10">
      <PointData>
        <DataArray type="Float64" Name="axial_strain" format="ascii" RangeMin="-0.0005604842899313844" RangeMax="-0.00006143332396824075">
          -0.00006143332396824075 -0.00012009332141902358 -0.00017509031158524646 -0.00022642429446690924 -0.0002740952700640121 -0.00031810323837655474
          -0.0003584481994045374 -0.00039513015314796007 -0.0004281490996068227 -0.00045750503878112526 -0.0004831979706708678 -0.0005052278952760504
          -0.0005235948125966727 -0.0005382987226327351 -0.0005493396253842375 -0.0005567175208511799 -0.0005604324090335622 -0.0005604842899313844
          -0.0005568731635446466 -0.0005495990298733489 -0.000538661888917491 -0.000538661888917602 -0.0005149334953111334 -0.0004925663247350176
          -0.0004715603771892546 -0.0004519156526738444 -0.00043363215118878695 -0.00041670987273408235 -0.0004011488173097305 -0.0003869489849157315
          -0.0003741103755520853 -0.00036263298921879183 -0.0003525168259158512 -0.00034376188564326336 -0.0003363681684010284 -0.0003303356741891461
          -0.0003256644030076167 -0.00032235435485644003 -0.00032040552973561616 -0.0003198179276451452 -0.0003205915485850269 -0.0003227263925552615
          -0.0003227263925548174 -0.00033267124006189364 -0.0003416423026353144 -0.00034963958027507956 -0.00035666307298118924 -0.00036271278075364344
          -0.0003677887035924421 -0.00037189084149758526 -0.0003750191944690728 -0.0003771737625069049 -0.0003783545456110815 -0.00037856154378160256
          -0.00037779475701846813 -0.0003760541853216781 -0.0003733398286912326 -0.0003696516871271316 -0.00036498976062937505 -0.000359354049197963
          -0.0003527445528328954 -0.0003451612715341723 -0.0003366042053017937 -0.00033660420530112756 -0.0003322199966312589 -0.000328001800875013
          -0.0003239496180323897 -0.0003200634481033893 -0.0003163432910880115 -0.00031278914698625645 -0.0003094010157981242 -0.0003061788975236146
          -0.0003031227921627278 -0.0003002326997154636 -0.0002975086201818222 -0.0002949505535618036 -0.0002925584998554076 -0.0002903324590626344
          -0.0002882724311834839 -0.0002863784162179561 -0.00028465041416605107 -0.00028308842502776876 -0.0002816924488031092 -0.0002804624854920723
          -0.0002804624854916282 -0.0002844359819758485 -0.0002883661787679781 -0.00029225307586801697 -0.0002960966732759651 -0.00029989697099182255
          -0.00030365396901558926 -0.0003073676673472653 -0.00031103806598685056 -0.00031466516493434515 -0.000318248964189749 -0.00032178946375306216
          -0.0003252866636242846 -0.00032874056380341633 -0.0003321511642904573 -0.0003355184650854076 -0.0003388424661882672 -0.00034212316759903605
          -0.0003453605693177142 -0.0003485546713443016 -0.00035170547367879834 -0.0003517054736764669 -0.0003541283838136045 -0.00035595217218754806
          -0.00035717683879829765 -0.00035780238364585326 -0.0003578288067302149 -0.00035725610805138253 -0.0003560842876093562 -0.00035431334540413583
          -0.0003519432814357215 -0.0003489740957041132 -0.0003454057882093109 -0.00034123835895131464 -0.0003364718079301243 -0.00033110613514574004
          -0.0003251413405981618 -0.0003185774242873896 -0.00031141438621342337 -0.00030365222637626307 -0.0002952909447759089 -0.0002863305414123607
          -0.00028633054141202763 -0.000278975842144113 -0.0002722721513431648 -0.0002662194690091829 -0.0002608177951421675 -0.00025606712974211854
          -0.000251967472809036 -0.00024851882434291986 -0.0002457211843437701 -0.0002435745528115868 -0.0002420789297463699 -0.00024123431514811946
          -0.00024104070901683538 -0.00024149811135251777 -0.00024260652215516652 -0.00024436594142478174 -0.00024677636916136335 -0.0002498378053649114
          -0.00025355025003542586 -0.0002579137031729067 -0.00026292816477735403 -0.0002629281647776871 -0.0002665439212644299 -0.0002700890590038263
          -0.00027356357799587615 -0.00027696747824057955 -0.00028030075973793644 -0.0002835634224879469 -0.00028675546649061076 -0.00028987689174592824
          -0.0002929276982538992 -0.00029590788601452367 -0.0002988174550278017 -0.00030165640529373317 -0.00030442473681231816 -0.00030712244958355675
          -0.0003097495436074488 -0.00031230601888399435 -0.0003147918754131934 -0.000317207113195046 -0.0003195517322295521 -0.00032182573251671176
          -0.00032182573251671176 -0.00031210962806370204 -0.00030316626276329474 -0.0002949956366154899 -0.0002875977496202875 -0.00028097260177768757
          -0.0002751201930876901 -0.00027004052355029506 -0.0002657335931655025 -0.00026219940193331233 -0.0002594379498537247 -0.0002574492369267395
          -0.0002562332631523567 -0.00025579002853057644 -0.00025611953306139854 -0.00025722177674482316 -0.00025909675958085026 -0.0002617444815694797
          -0.0002651649427107117 -0.00026935814300454606 -0.00027432408245098294 -0.000274324082451205 -0.00026211826589066234 -0.00025107574583338454
          -0.0002411965222793716 -0.00023248059522862352 -0.0002249279646811403 -0.00021853863063692192 -0.0002133125930959684 -0.00020924985205827973
          -0.00020635040752385592 -0.00020461425949269696 -0.00020404140796480286 -0.0002046318529401736 -0.00020638559441880922 -0.00020930263240070968
          -0.000213382966885875 -0.00021862659787430516 -0.0002250335253660002 -0.00023260374936096007 -0.0002413372698591848 -0.0002512340868606744
        </DataArray>
        <DataArray type="Float64" Name="base_vector_1" NumberOfComponents="3" format="ascii" RangeMin="0.9999999999999996" RangeMax="1.000000000000001">
          0.035782366437801305 0.9573798152840789 0.2866068937390264 0.020813385885079305 0.9577731669850914 0.28677057654394583
          0.005867834659361693 0.9579320935474478 0.2869349624361141 -0.009050625168670168 0.957857823724434 0.28710011444433037
          -0.023938370560550037 0.9575516408624638 0.2872660952784179 -0.038791818210080375 0.9570148818852646 0.28743296729861906
          -0.05360742522011397 0.9562489362728547 0.28760079248552856 -0.068381689756148 0.955255245035788 0.2877696324105635
          -0.08311115167683925 0.9540352996851342 0.2879395482069901 -0.09779239314154653 0.9525906411986553 0.2881106005415003
          -0.11242203919501592 0.9509228589836329 0.2882828495863536 -0.12699675832933677 0.9490335898367975 0.2884563549920873
          -0.14151326302329958 0.9469245169018015 0.28863117586079895 -0.15596831025929303 0.9445973686246727 0.2888073707200096
          -0.17035870201788716 0.9420539177076742 0.2889849974971083 -0.1846812857502591 0.9392959800620023 0.28916411349438503
          -0.19893295482861872 0.9363254137597307 0.2893447753646571 -0.21311064897479737 0.9331441179854121 0.2895270390874888
          -0.2272113546671779 0.9297540319877445 0.2897109599460093 -0.24123210552614283 0.9261571340316932 0.28989659250433425
          -0.2551699826782221 0.9223554403514598 0.29008399058559037 -0.2551699826782221 0.9223554403514598 0.2900839905855903
          -0.2690637668055258 0.9184212593935961 0.29001220609881795 -0.2828895805926517 0.9142812332171106 0.2899367375465089
          -0.2966443770312215 0.9099365651778613 0.2898578288197078 -0.3103251309491868 0.905388503181338 0.28977572605107493
          -0.3239288396449036 0.9006383392927753 0.289690677520453 -0.337452523514123 0.8956874093384897 0.28960293355982386
          -0.35089322666977996 0.8905370924985645 0.2895127464576898 -0.36424801755447644 0.8851888108910042 0.2894203703629117
          -0.3775139895455468 0.8796440291474872 0.28932606118803206 -0.39068826155259373 0.8739042539808384 0.2892300765121205
          -0.4037679786073989 0.8679710337443526 0.2891326754831685 -0.41675031244609184 0.861845957983095 0.28903411872006807
          -0.4296324620834904 0.8555306569773087 0.2889346682142061 -0.4424116543795049 0.8490268012780624 0.28883458723070476
          -0.4550851445975117 0.8423361012352693 0.2887341402093434 -0.4676502169546044 0.835460306518208 0.28863359266518884
          -0.48010418516362785 0.8284012056286838 0.2885332110889704 -0.49244439296690734 0.8211606254069628 0.2884332628472312
          -0.5046682146615833 0.8137404305306162 0.28833401608228254 -0.5167730556164689 0.8061425230064109 0.288235739612001
          -0.5167730556164694 0.806142523006411 0.28823573961200094 -0.5287787060801494 0.7983219439099414 0.28822760774786305
          -0.5406633182264122 0.7903238038097304 0.2882212023015054 -0.5524242771691203 0.78215000008206 0.2882165771877269
          -0.5640589980636932 0.7738024682955069 0.28821378655984514 -0.5755649266587093 0.7652831817318638 0.2882128847895433
          -0.5869395398398285 0.7565941508991969 0.2882139264465446 -0.5981803461659208 0.7477374230371614 0.28821696627812315
          -0.609284886397286 0.7387150816147011 0.28822205918845223 -0.6202507340158703 0.7295292458202565 0.28822926021780415
          -0.6310754957373619 0.7201820700446091 0.2882386245216021 -0.6417568120150796 0.7106757433564956 0.288250207349335
          -0.6522923575355364 0.7010124889711163 0.2882640640233415 -0.6626798417055955 0.6911945637116732 0.2882802499174677
          -0.6729170091311127 0.6812242574640703 0.28829882043561056 -0.683001640086979 0.6711038926249124 0.28831983099014835
          -0.6929315509784613 0.6608358235429338 0.2883433369802706 -0.7027045947937656 0.6504224359539971 0.28836939377020987
          -0.7123186615477262 0.6398661464098021 0.2883980566673881 -0.7217716787165309 0.6291694017004388 0.28842938090047854
          -0.7310616116634148 0.6183346782709289 0.28846342159739513 -0.7310616116634154 0.6183346782709289 0.28846342159739524
          -0.7401823438609139 0.6073960083748652 0.2884444259243794 -0.749139231166178 0.596316932015363 0.28843808507118596
          -0.757930031953721 0.5850998359185942 0.2884445330920055 -0.7665525380281943 0.5737471436279763 0.2884639000313076
          -0.7750045752366261 0.5622613150509502 0.2884963118645948 -0.7832840040750646 0.550644845995439 0.28854189044018147
          -0.7913887202894481 0.5389002676960475 0.2886007534220211 -0.7993166554705307 0.5270301463300666 0.2886730142336029
          -0.8070657776426979 0.5150370825233499 0.2887587820029437 -0.8146340918464996 0.5029237108461344 0.2888581615086937
          -0.8220196407147298 0.4906926992988757 0.2889712531273819 -0.8292205050418868 0.47834674878817585 0.2890981527818196
          -0.8362348043468417 0.46588859259288085 0.28923895189068755 -0.8430606974285575 0.45332099582043106 0.2893937373193246
          -0.8496963829146766 0.4406467548535472 0.28956259133174156 -0.8561400998028244 0.42786869678734 0.28974559154388035
          -0.8623901279944599 0.4149896788569348 0.28994281087813956 -0.8684447888211071 0.40201258785570126 0.29015431751918674
          -0.8743024455628015 0.38894033954418705 0.2903801748710771 -0.8799615039586004 0.3757758780498519 0.2906204415157
          -0.8799615039586004 0.37577587804985196 0.29062044151569993 -0.8854105028915558 0.3624974451787917 0.2909361503975931
          -0.890660907481132 0.34912806488013415 0.2912606087302899 -0.8957111021737201 0.33567066102497656 0.29159360207280755
          -0.9005595136685765 0.3221281870545457 0.29193491303023195 -0.905204611471575 0.30850362539617415 0.29228432131746623
          -0.9096449084413347 0.2947999868690754 0.29264160382411347 -0.9138789613275256 0.28102031008000505 0.2930065346804763
          -0.917905371301182 0.2671676608088969 0.29337888532466216 -0.9217227844768248 0.2532451313845648 0.29375842457077556
          -0.9253298924262108 0.23925584005056671 0.29414491867818354 -0.9287254326835355 0.22520293032133012 0.2945381314218358
          -0.931908189241889 0.2110895703286396 0.29493782416362574 -0.9348769930408016 0.19691895215859181 0.29534375592477186
          -0.9376307224446814 0.18269429117912794 0.2957556834592042 -0.9401683037119779 0.16841882535825342 0.2961733613279374
          -0.9424887114548837 0.15409581457306154 0.2965965419744105 -0.9445909690894028 0.13972853990967915 0.2970249758007765
          -0.9464741492756064 0.1253203029542544 0.2974584112451214 -0.9481373743478967 0.11087442507511422 0.2978965948595923
          -0.9495798167351184 0.09639424669621668 0.2983392713894159 -0.9495798167351197 0.09639424669621673 0.29833927138941607
          -0.9508184742325585 0.08189864178113625 0.29872536138144634 -0.9518348970178807 0.06737995767743142 0.2991158138954685
          -0.9526285639099896 0.052841595965697125 0.29951057570407885 -0.9531990056342894 0.03828697025219108 0.2999095923219362
          -0.9535458050925563 0.02371950538221257 0.30031280800993493 -0.9536685976210724 0.009142636647686192 0.30072016577972843
          -0.9535670712368907 -0.005440191010878059 0.30113160739860056 -0.9532409668721324 -0.020025523807875728 0.30154707339469067
          -0.9526900785961805 -0.034609899921373616 0.3019665030625699 -0.9519142538256711 -0.04918985030697215 0.302389834469174
          -0.9509133935221727 -0.06376189951658537 0.3028170044600911 -0.9496874523774399 -0.07832256652195431 0.303247948666207
          -0.9482364389861386 -0.09286836554271032 0.30368260151071 -0.9465604160059475 -0.10739580687880132 0.30412089621645444
          -0.9446595003049247 -0.12190139774709162 0.3045627648136855 -0.9425338630960556 -0.136381643121944 0.3050081381481262
          -0.9401837300588776 -0.15083304657959162 0.30545694588942657 -0.9376093814480995 -0.1652521111461046 0.30590911653997627
          -0.9348111521891216 -0.17963534014875177 0.30636457744408124 -0.9317894319603699 -0.19397923807056236 0.3068232547975055
          -0.9317894319603708 -0.19397923807056244 0.30682325479750555 -0.9285377478037602 -0.208277479004771 0.3073078955102495
          -0.9250619149148358 -0.22253222990383859 0.30779840842363404 -0.9213624064813957 -0.2367399716537962 0.3082945048880558
          -0.9174397513128438 -0.2508971880357965 0.3087958933450323 -0.9132945338987433 -0.26500036659884807 0.3093022794179732
          -0.9089273944537319 -0.2790459995353162 0.30981336600425685 -0.9043390289487427 -0.2930305845589839 0.31032885336859234
          -0.8995301891284329 -0.30695062578546484 0.3108484392376414 -0.8945016825147434 -0.32080263461475583 0.3113718188958747
          -0.8892543723965292 -0.33458313061571926 0.3118986852826412 -0.883789177805181 -0.34828864241227747 0.3124287290904217
          -0.8781070734761691 -0.3619157085711065 0.3129616388642427 -0.8722090897964563 -0.3754608784906086 0.31349710110222345
          -0.8660963127377093 -0.3889207132909475 0.31403480035723014 -0.859769883775253 -0.40229178670492016 0.3145744193396071
          -0.8532309997927252 -0.41557068596944907 0.3151156390209626 -0.8464809129723596 -0.4287540127174649 0.3156581387389736
          -0.8395209306708789 -0.44183838386995883 0.31620159630318667 -0.8323524152809281 -0.45482043252797444 0.3167456881017832
          -0.8249767840780189 -0.46769680886431125 0.3172900892092775 -0.8249767840780182 -0.4676968088643112 0.31729008920927754
          -0.8173919457017504 -0.4804692403184535 0.31783598948154784 -0.8096052494964243 -0.49312666877109756 0.3183793783123414
          -0.8016183967593555 -0.5056658916933201 0.31891997735319183 -0.7934331403247818 -0.5180837308578867 0.31945750837118814
          -0.7850512842366208 -0.5303770331672567 0.319991693340828 -0.7764746834077587 -0.5425426714774784 0.32052225453609634
          -0.7677052432659157 -0.5545775454177547 0.3210489146227413 -0.7587449193861366 -0.5664785822054679 0.3215713967507199
          -0.749595717109951 -0.578242737456442 0.32208942464678725 -0.7402596911512624 -0.5898669959902332 0.32260272270719625
          -0.7307389451890134 -0.6013483726302274 0.32311101609048576 -0.7210356314467012 -0.6126839129983366 0.32361403081032125
          -0.7111519502587995 -0.6238706943040753 0.3241114938283686 -0.7010901496241506 -0.6349058261278069 0.32460313314716066
          -0.6908525247464052 -0.6457864511979461 0.3250886779029396 -0.680441417561584 -0.6565097461619058 0.32556785845843705
          -0.6698592162528352 -0.6670729223505799 0.3260404064955669 -0.6591083547524739 -0.6774732265361463 0.32650605510800257
          -0.6481913122313827 -0.6877079416829878 0.32696453889360483 -0.6371106125758625 -0.6977743876915167 0.32741559404667653
          -0.6371106125758625 -0.6977743876915168 0.3274155940466764 -0.6258729096122042 -0.7076750161316108 0.3278401631232486
          -0.6144826811898936 -0.7173963253096645 0.32825835396813585 -0.6029428206448029 -0.7269360163170513 0.32867002177561755
          -0.5912562554096299 -0.7362918372916072 0.3290750230217 -0.5794259462439757 -0.7454615839090517 0.3294732155048159
          -0.5674548864575395 -0.7544430998617581 0.32986445838623235 -0.5553461011266463 -0.7632342773247844 0.33024861223016216
          -0.5431026463042905 -0.7718330574090702 0.33062553904355946 -0.5307276082239443 -0.7802374306017237 0.33099510231559726
          -0.5182241024973036 -0.788445437193311 0.3313571670568087 -0.505595273306211 -0.7964551676920737 0.3317115998378856
          -0.49284429258895424 -0.8042647632249991 0.3320582688281223 -0.4799743592211627 -0.8118724159256739 0.33239704383349233
          -0.46698869819150457 -0.8192763693088505 0.3327277963343494 -0.4538905597724181 -0.826474918631668 0.33305039952274335
          -0.44068321868607563 -0.8334664112414618 0.333364728339336 -0.4273699732658045 -0.8402492469101095 0.333670659509912
          -0.41395414461318825 -0.8468218781548564 0.3339680715814691 -0.40043907575105075 -0.8531828105455743 0.33425684495788477
          -0.3868281307725563 -0.8593306029984031 0.33453686193514126 -0.38682813077255673 -0.8593306029984031 0.33453686193514126
          -0.3731022072041712 -0.865256472360953 0.33485217636571357 -0.3592828502351173 -0.8709699130843276 0.33515256828616025
          -0.34537335944899494 -0.8764694229742839 0.3354379125472276 -0.3313770592658616 -0.8817535505122496 0.3357080885998305
          -0.31729729816259056 -0.8868208952698459 0.33596298053730483 -0.3031374478861524 -0.8916701083116216 0.3362024771363399
          -0.288900902659996 -0.8962998925858825 0.33642647189657243 -0.2745910783837089 -0.9007090033034899 0.3366348630788342
          -0.26021141182614294 -0.904896248304524 0.33682755374203394 -0.24576535981218584 -0.9088604884126881 0.3370044517786629
          -0.23125639840336887 -0.912600637777353 0.3371654699489122 -0.2166880220724985 -0.9161156642031307 0.33731052591338606
          -0.20206374287250006 -0.9194045894668713 0.3374395422644026 -0.18738708959966877 -0.9224664896219883 0.3375524465558679
          -0.17266160695151989 -0.925300495290004 0.3376491713317123 -0.15789085467943842 -0.9279057919392318 0.3377296541528793
          -0.1430784067363169 -0.9302816201504904 0.3377938376228542 -0.1282278504193941 -0.9324272758697694 0.33784166941172655
          -0.11334278550847943 -0.9343421106477539 0.3378731022787687 -0.09842682339978093 -0.9360255318661286 0.3378880940935315
          <InformationKey name="L2_NORM_RANGE" location="vtkDataArray" length="2">
            <Value index="0">
              1
            </Value>
            <Value index="1">
              1
            </Value>
          </InformationKey>
        </DataArray>
        <DataArray type="Float64" Name="base_vector_2" NumberOfComponents="3" format="ascii" RangeMin="0.9999999999999996" RangeMax="1.0000000000000007">
          -0.012544585837095446 -0.28633766244232506 0.9580466462721116 -0.0080482048063234 -0.28666291055312687 0.9579977046489233
          -0.003550771019843524 -0.286918133902911 0.957948524954674 0.0009466177174239365 -0.2871035381487732 0.9578990877422073
          0.0054428721656936685 -0.2872193458719887 0.9578493735966294 0.009936911887268252 -0.28726579633150795 0.9577993631445831
          0.014427665477482754 -0.2872431452149877 0.9577490370634009 0.018914070789644355 -0.28715166438746964 0.9576983760901292
          0.023395075153973266 -0.28699164163786084 0.9576473610304294 0.027869635590552166 -0.2867633804233152 0.9575959727673476
          0.032336719016287374 -0.2864671996116628 0.9575441922699512 0.03679530244590601 -0.28610343322200116 0.9574920006018317
          0.04124437318698754 -0.28567243016357247 0.9574393789294706 0.04568292902906074 -0.285174553973055 0.9573863085304672
          0.050109978426771784 -0.2846101825503755 0.9573327708016219 0.054524540677153954 -0.2839797078931785 0.9572787472668817
          0.05892564609101336 -0.28328353583005983 0.9572242195851377 0.06331233615846105 -0.2825220857526787 0.9571691695578762
          0.06768366370861445 -0.28169579034687064 0.9571135791366829 0.07203869306349714 -0.28080509532286957 0.9570574304305972
          0.07637650018616832 -0.27985045914475304 0.9570007057133152 0.07637650018616837 -0.27985045914475304 0.9570007057133153
          0.08080509297704491 -0.2785285404015527 0.9570226690788219 0.08521960095679076 -0.2771302297985776 0.9570456913567678
          0.089618811382704 -0.2756557270936859 0.957069688563379 0.09400151481096014 -0.2741052512281217 0.9570945755056888
          0.09836650539656566 -0.27247904026794245 0.9571202658134081 0.10271258119211485 -0.2707773513408005 0.9571466719712891
          0.10703854444526878 -0.2690004605681007 0.9571737053519539 0.11134320189489505 -0.2671486629925641 0.9572012762491905
          0.11562536506579618 -0.26522227250121855 0.9572292939117001 0.11988385056195389 -0.2632216217438441 0.9572576665772807
          0.1241174803582289 -0.26114706204689986 0.957286301507442 0.12832508209043753 -0.2589989633229641 0.9573151050224336
          0.13250548934374795 -0.25677771397570837 0.9573439825366761 0.1366575419393234 -0.25448372080044823 0.9573728385945897
          0.14078008621914595 -0.25211740888029155 0.9574015769067953 0.14487197532895996 -0.2496792214779222 0.9574301003866885
          0.1489320694992637 -0.2471696199230482 0.9574583111873658 0.15295923632428982 -0.24458908349555775 0.9574861107388939
          0.15695235103890937 -0.24193810930440152 0.9575133997859093 0.1609102967933953 -0.23921721216225733 0.9575400784255351
          0.16091029679339547 -0.23921721216225755 0.9575400784255352 0.16474269520091273 -0.23659272719769397 0.9575404564900103
          0.16853506273707064 -0.23390749210853645 0.957540191200196 0.17228647346079484 -0.23116212814304316 0.9575392637248995
          0.1759960112070285 -0.22835727056704203 0.9575376551438521 0.1796627697971227 -0.22549356850829194 0.9575353464547525
          0.18328585324671937 -0.22257168479772238 0.9575323185803839 0.18686437597108518 -0.21959229580757933 0.9575285523757993
          0.190397462987847 -0.21655609128652364 0.9575240286355711 0.19388425011708738 -0.21346377419172513 0.9575187281011059
          0.1973238841787523 -0.21031606051798923 0.9575126314680158 0.20071552318733404 -0.2071136791239674 0.957505719393555
          0.2040583365437785 -0.2038573715554879 0.9574979725041062 0.20735150522458248 -0.20054789186605415 0.9574893714027233
          0.2105942219680344 -0.19718600643455697 0.9574798966767236 0.2137856914575616 -0.19377249378024497 0.9574695289053318
          0.21692513050214168 -0.1903081443749981 0.9574582486673633 0.22001176821374033 -0.1867937604529526 0.9574460365489579
          0.22304484618173825 -0.18323015581752777 0.9574328731513501 0.22602361864430728 -0.17961815564589134 0.9574187390986775
          0.22894735265670035 -0.17595859629092647 0.9574036150458252 0.22894735265670044 -0.17595859629092692 0.9574036150458254
          0.23185645414281175 -0.1721139627109176 0.9574024067821574 0.23471636161160275 -0.16822351775594857 0.9573970324090342
          0.23752633641197757 -0.164287913113617 0.9573874456642286 0.24028564793074272 -0.16030781257962023 0.9573736013826788
          0.24299357379070927 -0.15628389196789416 0.957355455516804 0.24564940004805727 -0.15221683901751626 0.957332965156609
          0.24825242138891376 -0.1481073532963686 0.9573060885495747 0.25080194132508854 -0.14395614610156615 0.9572747851203183
          0.25329727238892075 -0.13976394035665374 0.9572390154900264 0.2557377363271819 -0.1355314705055688 0.9571987414956453
          0.25812266429398456 -0.13125948240338037 0.9571539262088262 0.2604513970426452 -0.1269487332038033 0.9571045339546168
          0.2627232851164474 -0.12259999124349408 0.9570505303298865 0.26493768903825576 -0.11821403592313917 0.9569918822214903
          0.2670939794989261 -0.1137916575853335 0.956928557824151 0.2691915375444595 -0.10933365738926559 0.9568605266580582
          0.27122975476185046 -0.10484084718221487 0.95678775958618 0.2732080334635729 -0.10031404936786692 0.956710228831274
          0.27512578687065337 -0.09575409677146274 0.9566279079925932 0.2769824392942789 -0.09116183250178933 0.9565407720622819
          0.27698243929427896 -0.09116183250178933 0.9565407720622819 0.27879053426942557 -0.08666800543217845 0.9564332150423135
          0.28053070701386007 -0.08215173179403057 0.9563229660452295 0.2822025961038097 -0.07761402031003328 0.9562101017054692
          0.28380585503746536 -0.07305588602946478 0.9560946993697347 0.28534015235354626 -0.06847835011222414 0.9559768370733479
          0.2868051717467818 -0.063882439610629 0.9558565935163568 0.2882006121802675 -0.05926918724900787 0.9557340480393912
          0.2895261879946555 -0.05463963120114568 0.9556092805992865 0.2907816290141341 -0.049994814865613746 0.9554823717444713
          0.2919666806491586 -0.045335786639032705 0.9553534025901267 0.2930811039958914 -0.040663599687312146 0.9552224547931335
          0.2941246759323115 -0.035979311714912754 0.9550896105267995 0.29509718921095496 -0.03128398473217797 0.9549549524553873
          0.2959984525482454 -0.026578684820777188 0.9548185637084367 0.2968282907103799 -0.021864481897315047 0.9546805278549032
          0.2975865445957291 -0.017142449475151755 0.954540928877105 0.2982730713137181 -0.01241366442448033 0.9543998511444971
          0.298887744260149 -0.007679206730718313 0.9542573793872736 0.299430453188932 -0.0029401592512556807 0.9541135986698065
          0.29990110428018846 0.0018023925293824128 0.9539685943639306 0.2999011042801886 0.0018023925293817467 0.9539685943639311
          0.30024465501296593 0.006620248979625765 0.9538392524107998 0.3005148604144065 0.011446328493736058 0.9537084461375622
          0.3007115267201327 0.016279512356081494 0.9535761926427775 0.30083447715316813 0.02111867736324713 0.9534425094479515
          0.3008835520236678 0.02596269607964896 0.9533074144964448 0.3008586088248737 0.030810437095261878 0.9531709261522623
          0.30075952232525277 0.035660765285411955 0.9530330631987249 0.3005861846567752 0.040512542072566715 0.9528938448370321
          0.3003385053992912 0.045364625690077154 0.9527532906846974 0.30001641166096565 0.05021587144781814 0.9526114207738717
          0.29961984815473064 0.05506513199965257 0.9524682555495471 0.2991487772707168 0.05991125761268168 0.9523238158676397
          0.298603179144625 0.0647530964382107 0.9521781229929551 0.2979830517220009 0.06958949478437004 0.9520311985970312
          0.29728841081837487 0.07441929739033915 0.9518830647558626 0.2965192901752337 0.07924134770210312 0.9517337439475028
          0.29567574151178594 0.08405448814968575 0.9515832590495436 0.29475783457248944 0.08885756042579329 0.9514316333364757
          0.2937656571703063 0.09364940576580671 0.9512788904769252 0.2926993152256541 0.09842886522905925 0.951125054530766
          0.2926993152256542 0.09842886522905891 0.9511250545307663 0.29159135231163114 0.10315692958141409 0.9509643164369574
          0.29041551343410954 0.10786304230600963 0.9508019739468858 0.28917212922826646 0.1125461818178155 0.9506381207566958
          0.28786154596623836 0.1172053311765654 0.9504728511102875 0.2864841255011733 0.12183947832693931 0.9503062597693691
          0.2850402452075332 0.1264476163381797 0.9501384419832841 0.2835302979176507 0.1310287436430858 0.9499694934586282
          0.28195469185454236 0.13558186427631702 0.9497995103286633 0.28031385056098007 0.14010598811196595 0.9496285891225299
          0.27860821282482756 0.144600131100322 0.9494568267342783 0.2768382326006456 0.14906331550378404 0.9492843203917205
          0.27500437892757207 0.15349457013185408 0.9491111676251092 0.2731071358434848 0.15789293057515874 0.9489374662356611
          0.2711470022954556 0.1622574394384354 0.9487633142639268 0.26912449204650124 0.16658714657243157 0.9485888099580175
          0.2670401335786466 0.17088110930465283 0.9484140517417013 0.26489446999230487 0.17513839266890585 0.9482391381823724
          0.26268805890199226 0.17935806963357181 0.9480641679589109 0.26042147232838486 0.18353922132856093 0.9478892398294338
          0.2580952965867345 0.18768093727088475 0.9477144525989506 0.25809529658673447 0.1876809372708853 0.9477144525989503
          0.25571226755961163 0.19178130374452307 0.9475395336098502 0.2532686377796869 0.19584025762797053 0.947365605565999
          0.2507650665990781 0.19985686749910847 0.9471927543467612 0.2482022279709662 0.20383021221334197 0.9470210655625949
          0.245580810293616 0.2077593811334788 0.9468506245266805 0.24290151625069584 0.21164347435728337 0.9466815162265982
          0.2401650626479229 0.21548160294265672 0.9465138252960612 0.2373721802460726 0.21927288913037557 0.9463476359867151
          0.23452361359038384 0.22301646656434138 0.9461830321400105 0.23162012083639907 0.22671148050926881 0.9460200971591606