<?xml version="1.0"?>
<VTKFile type="UnstructuredGrid" version="0.1" byte_order="LittleEndian" header_type="UInt32" compressor="vtkZLibDataCompressor">
  <UnstructuredGrid>
    <FieldData>
      <DataArray type="Float64" Name="TIME" NumberOfTuples="1" format="ascii" RangeMin="1" RangeMax="1">
        1
      </DataArray>
    </FieldData>
    <Piece NumberOfPoints="210" NumberOfCells="10">
      <PointData>
        <DataArray type="Float64" Name="axial_strain" format="ascii" RangeMin="-0.00005981805178321587" RangeMax="-0.000006574060034791884">
          -0.000006574060034791884 -0.000012923715575223758 -0.00001887045030816825 -0.000024414264233625364 -0.000029555157351595083 -0.000034293129662077426
          -0.00003862818116507239 -0.000042560311860579955 -0.00004608952174860015 -0.00004921581082913295 -0.00005193917910217838 -0.00005425962656773642
          -0.00005617715322580707 -0.00005769175907639035 -0.000058803444119486236 -0.00005951220835509474 -0.00005981805178321587 -0.00005972097440384961
          -0.00005922097621699595 -0.000058318057222654925 -0.000057012217420826516 -0.00005701221742138163 -0.00005440440380519274 -0.000051942859192104506
          -0.00004962758358211694 -0.00004745857697523004 -0.0000454358393714438 -0.00004355937077075822 -0.00004182917117317331 -0.000040245240578689055
          -0.00003880757898730547 -0.000037516186399022544 -0.00003637106281384028 -0.000035372208231758686 -0.000034519622652777746 -0.00003381330607689748
          -0.000033253258504117866 -0.00003283947993443892 -0.00003257197036786064 -0.00003245072980438301 -0.00003247575824400606 -0.000032647055686729765
          -0.000032647055687173854 -0.00003371367240240952 -0.00003467354571566439 -0.000035526675626938454 -0.00003627306213623172 -0.000036912705243544175
          -0.000037445604948875835 -0.000037871761252226685 -0.00003819117415359674 -0.00003840384365298599 -0.00003850976975039444 -0.000038508952445822086
          -0.00003840139173926893 -0.00003818708763073497 -0.000037866040120220215 -0.00003743824920772465 -0.00003690371489324829 -0.00003626243717679112
          -0.00003551441605835315 -0.00003465965153793438 -0.000033698143615534804 -0.00003369814361520174 -0.000033222319678055106 -0.00003276397002847986
          -0.00003232309466647598 -0.00003189969359204348 -0.000031493766805182344 -0.00003110531430589258 -0.0000307343360941742 -0.000030380832170027183
          -0.00003004480253345154 -0.000029726247184447274 -0.00002942516612301438 -0.00002914155934915286 -0.000028875426862862705 -0.000028626768664143932
          -0.000028395584752996528 -0.0000281818751294205 -0.00002798563979341584 -0.000027806878744982553 -0.000027645591984120643 -0.000027501779510830104
          -0.00002750177951105215 -0.00002788589162113164 -0.00002826378408836483 -0.00002863545691275171 -0.000029000910094292287 -0.000029360143632986557
          -0.000029713157528834522 -0.00003005995178183618 -0.000030400526391991533 -0.00003073488135930058 -0.00003106301668376332 -0.000031384932365379757
          -0.00003170062840414989 -0.000032010104800073716 -0.00003231336155315123 -0.000032610398663382445 -0.00003290121613076735 -0.000033185813955305956
          -0.00003346419213699825 -0.00003373635067584424 -0.000034002289571843924 -0.00003400228957051166 -0.00003420459915829899 -0.000034350567404115576
          -0.00003444019430796141 -0.00003447347986983651 -0.00003445042408974086 -0.000034371026967674465 -0.000034235288503637335 -0.00003404320869762944
          -0.000033794787549650814 -0.000033490025059701445 -0.00003312892122778133 -0.00003271147605389047 -0.00003223768953802886 -0.00003170756168019651
          -0.00003112109248039341 -0.000030478281938619568 -0.000029779130054874985 -0.000029023636829159647 -0.000028211802261473574 -0.000027343626351816752
          -0.00002734362635270493 -0.00002662591182273022 -0.0000259741235200206 -0.000025388261444576063 -0.000024868325596396622 -0.00002441431597548227
          -0.000024026232581833008 -0.000023704075415448834 -0.000023447844476329747 -0.000023257539764475755 -0.00002313316127988685 -0.000023074709022563036
          -0.000023082182992504308 -0.00002315558318971067 -0.000023294909614182124 -0.000023500162265918667 -0.0000237713411449203 -0.00002410844625118702
          -0.000024511477584718832 -0.000024980435145515732 -0.000025515318933577724 -0.000025515318934132836 -0.00002586893493644882 -0.000026220505698471006
          -0.000026570031220199408 -0.000026917511501634017 -0.000027262946542774835 -0.000027606336343621865 -0.000027947680904175096 -0.000028286980224434543
          -0.000028624234304400198 -0.00002895944314407206 -0.000029292606743450136 -0.000029623725102534413 -0.000029952798221324905 -0.000030279826099821605
          -0.000030604808738024514 -0.000030927746135933634 -0.00003124863829354896 -0.00003156748521087049 -0.00003188428688789824 -0.00003219904332463219
          -0.00003219904332507628 -0.00003124078619966941 -0.000030366928876928157 -0.000029577471356852514 -0.000028872413639442486 -0.00002825175572469807
          -0.000027715497612619267 -0.00002726363930320608 -0.0000268961807964585 -0.00002661312209237654 -0.00002641446319096019 -0.000026300204092209454
          -0.000026270344796124334 -0.000026324885302704827 -0.00002646382561195093 -0.00002668716572386265 -0.00002699490563843998 -0.000027387045355682928
          -0.000027863584875591485 -0.00002842452419816566 -0.000029069863323405443 -0.000029069863323849532 -0.000027883317962412168 -0.000026818081661326152
          -0.00002587415442059149 -0.000025051536240208174 -0.000024350227120176204 -0.000023770227060495586 -0.000023311536061166313 -0.000022974154122188397
          -0.000022758081243561823 -0.0000226633174252866 -0.000022689862667362725 -0.0000228377169697902 -0.000023106880332569024 -0.000023497352755699196
          -0.00002400913423918072 -0.00002464222478301359 -0.000025396624387197807 -0.000026272333051733377 -0.000027269350776620294 -0.00002838767756185856
        </DataArray>
        <DataArray type="Float64" Name="base_vector_1" NumberOfComponents="3" format="ascii" RangeMin="0.9999999999999994" RangeMax="1.000000000000001">
          0.0040467770222074595 0.9570998724225241 0.28972997394905703 -0.01097899817902559 0.9570399713418719 0.28974808860963086
          -0.025998883416856744 0.9567442588005926 0.28976625288874197 -0.04100918046994728 0.9562129501780985 0.28978447340891383
          -0.05600619715240707 0.955446318765625 0.2898027567807836 -0.07098624821814403 0.9544446956185235 0.2898211095996572
          -0.08594565626188988 0.953208469394496 0.2898395384420768 -0.10088075261668705 0.9517380861778413 0.28985804986239666
          -0.11578787824761516 0.9500340492897903 0.28987665038936933 -0.13066338464154947 0.9480969190850013 0.28989534652274795
          -0.14550363469273142 0.9459273127343015 0.2899141447298981 -0.1603050035839484 0.9435259039937554 0.28993305144242854
          -0.175063879663107 0.9408934229601484 0.28995207305283655 -0.18977666531499615 0.9380306558129741 0.28997121591117075
          -0.20443977782802958 0.9349384445430207 0.28999048632171304 -0.21904965025577017 0.9316176866676518 0.2900098905396824
          -0.2336027322730274 0.928069334932879 0.2900294347679569 -0.24809549102633066 0.9242943970023338 0.2900491251538206
          -0.2625244119785799 0.9202939351332381 0.29006896778573393 -0.27688599974767625 0.9160690658394861 0.2900889686901273
          -0.29117677893893834 0.9116209595419489 0.29010913382822384 -0.2911767789389377 0.9116209595419486 0.2901091338282238
          -0.30539807807817754 0.9069586269074635 0.29010009132070974 -0.3195439933412354 0.9020748499570646 0.2900906778827571
          -0.3336110767442908 0.8969708510654868 0.290080922868726 -0.34759590020370856 0.8916479062443736 0.29007085591558385
          -0.3614950563694761 0.8861073448173225 0.2900605069312701 -0.37530515945333165 0.8803505490820018 0.29004990608294984
          -0.3890228460513603 0.8743789539594171 0.2900390837851623 -0.40264477596087067 0.8681940466304165 0.29002807068786185
          -0.4161676329913533 0.861797366159536 0.2900168976643634 -0.4295881257693206 0.8551905031062726 0.29000559579919105
          -0.44290298853683807 0.8483750991238918 0.28999419637583446 -0.45610898194355 0.8413528465458664 0.2899827308644204
          -0.4692028938320181 0.8341254879600591 0.28997123090930077 -0.4821815400161624 0.8266948157707472 0.2899597283165603
          -0.49504176505264796 0.8190626717486128 0.2899482550414535 -0.5077804430050001 0.8112309465688038 0.2899368431757677
          -0.5203944782002843 0.8032015793371847 0.2899255249351226 -0.5328808059781662 0.7949765571049032 0.2899143326462083
          -0.5452363934321551 0.7865579143713848 0.2899032987339646 -0.5574582401428851 0.7779477325758926 0.28989245570871003
          -0.557458240142884 0.7779477325758923 0.2898924557087099 -0.5695455898731825 0.7691426680328798 0.2898920096644132
          -0.5814937078728484 0.7601498732614568 0.28989176926031973 -0.5932996791605913 0.750971551202789 0.289891738399039
          -0.6049606236264096 0.7416099500356734 0.2898919210147676 -0.6164736967332236 0.7320673626243118 0.289892321071735
          -0.6278360902097662 0.7223461259552093 0.28989294256262177 -0.639045032734548 0.7124486205633351 0.28989378950695144
          -0.6500977906107499 0.7023772699476891 0.2898948659494557 -0.6609916684318555 0.6921345399764128 0.28989617595841377
          -0.6717240097378869 0.6817229382815992 0.2898977236239675 -0.6822921976620635 0.6711450136439421 0.28989951305641115
          -0.6926936555677394 0.6604033553673823 0.28990154838445714 -0.7029258476754563 0.6495005926438997 0.2899038337534796
          -0.7129862796799691 0.638439393908613 0.28990637332373326 -0.7228724993570872 0.6272224661853397 0.2899091712685523
          -0.7325820971601817 0.6158525544227802 0.28991223177252623 -0.7421127068062248 0.6043324408214903 0.28991555902965593
          -0.7514620058512105 0.5926649441518039 0.2899191572414892 -0.7606277162548132 0.5808529190628764 0.28992303061523544
          -0.7696076049341665 0.5688992553830179 0.28992718336186485 -0.7696076049341669 0.5688992553830181 0.28992718336186485
          -0.7783995145502463 0.5568100929053107 0.2899253631311357 -0.7870015428161072 0.5445843294398125 0.28992495534820284
          -0.7954115565773359 0.532224938359833 0.28992597443329005 -0.8036274691264051 0.5197349265145712 0.2899284343185117
          -0.8116472407305451 0.5071173335052166 0.2899323484419287 -0.8194688791483613 0.49437523095268743 0.28993772974175963
          -0.8270904401350618 0.48151172175717843 0.28994459065074485 -0.8345100279361708 0.468529939349697 0.2899529430906699
          -0.8417257957695989 0.4554330469357636 0.28996279846704864 -0.8487359462959416 0.44222423673146105 0.28997416766396644
          -0.8555387320768859 0.4289067291920099 0.28998706103908806 -0.8621324560216075 0.4154837722330614 0.29000148841883056
          -0.8685154718210435 0.4019586404448893 0.2900174590937027 -0.8746861843699159 0.38833463429967136 0.29003498181381365
          -0.8806430501764131 0.37461507935205024 0.2900540647845526 -0.8863845777594082 0.360803325433167 0.29007471566243864
          -0.8919093280331118 0.34690274583835984 0.29009694155114757 -0.8972159146790644 0.33291673650872317 0.2901207489977108
          -0.9023030045053586 0.31884871520672636 0.29014614398889277 -0.9071693177930105 0.3047021206860899 0.2901731319477468
          -0.9071693177930098 0.30470212068608976 0.29017313194774674 -0.911812318707601 0.2904781614444558 0.29020808599506215
          -0.9162324057200082 0.276182116111554 0.290244065311715 -0.9204284469402182 0.261817473593785 0.29028104413513905
          -0.9243993650215072 0.24738774079508755 0.29031899636802505 -0.9281441374501789 0.23289644176532914 0.29035789558734726
          -0.9316617968220182 0.21834711684398087 0.2903977150534935 -0.9349514311053917 0.20374332179928462 0.29043842771949774
          -0.938012183890911 0.1890886269631198 0.29048000624037207 -0.9408432546275955 0.17438661636177955 0.29052242298253395
          -0.9434438988454656 0.1596408868428661 0.2905656500333274 -0.9458134283644921 0.14485504719851755 0.29060965921063403
          -0.9479512114898596 0.1300327172851788 0.29065442207257114 -0.9498566731934668 0.11517752714012966 0.2906999099272747
          -0.951529295281619 0.10029311609498594 0.2907460938427621 -0.9529686165488642 0.08538313188638796 0.2907929446568749
          -0.9541742329179146 0.07045122976409397 0.29084043298729456 -0.9551457975656177 0.055501071596695664 0.29088852924163106
          -0.9558830210349336 0.040536324975172455 0.29093720362758024 -0.95638567133288 0.025560662314506932 0.29098642616314585
          -0.9566535740144106 0.010577759953575988 0.29103616668692467 -0.9566535740144109 0.010577759953576016 0.2910361666869248
          -0.9566885375057812 -0.00440722555817652 0.29108008961096765 -0.9564886530287673 -0.01939165918245017 0.29112440670848605
          -0.9560539341307541 -0.034371860032278156 0.291169109403846 -0.955384452059119 -0.04934414732103064 0.29121418902391794
          -0.9544803357643734 -0.06430484126702243 0.2912596367998016 -0.9533417718891437 -0.07925026399829184 0.2913054438685795
          -0.9519690047429465 -0.09417674045732456 0.29135160127509113 -0.9503623362627811 -0.10908059930550516 0.29139809997373367
          -0.948522125959532 -0.12395817382706892 0.2914449308302846 -0.9464487908501829 -0.13880580283233496 0.2914920846237484
          -0.94414280537586 -0.15361983155999512 0.29153955204822557 -0.9416047013057092 -0.16839661257823815 0.2915873237148046
          -0.9388350676266239 -0.1831325066844857 0.2916353901534753 -0.9358345504188526 -0.1978238838035183 0.29168374181506523
          -0.9326038527174871 -0.21246712388376937 0.2917323690731959 -0.9291437343598861 -0.22705861779156547 0.29178126222626155
          -0.925455011819035 -0.24159476820309075 0.29183041149942696 -0.9215385580229003 -0.25607199049385726 0.29187980704664723
          -0.917395302159794 -0.27048671362545695 0.29192943895270573 -0.9130262294698035 -0.2848353810293785 0.29197929723527233
          -0.913026229469803 -0.28483538102937855 0.29197929723527233 -0.9084316730404045 -0.29911421412805334 0.2920318173137446
          -0.9036132703492075 -0.3133200897277593 0.29208488324765824 -0.8985721703401239 -0.32744949663513157 0.2921384634786021
          -0.8933095770951258 -0.3414989415865722 0.2921925261969905 -0.8878267495571652 -0.35546495011501233 0.2922470393528225
          -0.8821250012394506 -0.36934406741243264 0.29230197066653396 -0.8762056999211456 -0.38313285918792594 0.2923572876399363
          -0.8700702673295595 -0.3968279125210906 0.2924129575672422 -0.8637201788089044 -0.4104258367105409 0.2924689475461739
          -0.857156962975679 -0.4239232641173208 0.2925252244891484 -0.8503822013607774 -0.4373168510030136 0.292581755134539
          -0.8433975280383819 -0.4506032783623347 0.2926385060580079 -0.8362046292417482 -0.4637792527500027 0.2926954436839075
          -0.8288052429659425 -0.4768415071016769 0.29275253429674486 -0.8212011585576473 -0.4897868015487613 0.29280974405270854
          -0.8133942162921151 -0.5026119242268657 0.29286703899125155 -0.8053863069373726 -0.5153136920777255 0.29292438504672896
          -0.7971793713057693 -0.5278889516443732 0.29298174806008404 -0.7887753997929909 -0.5403345798593693 0.29303909379058324
          -0.7801764319046192 -0.5526474848258854 0.29309638792759024 -0.7801764319046183 -0.5526474848258852 0.2930963879275903
          -0.7713844562247343 -0.5648245964623185 0.29315387755588374 -0.7624020122987947 -0.5768626169001216 0.29321100399864297
          -0.7532312965441661 -0.588758564505636 0.2932677388115815 -0.7438745521144283 -0.6005094922521576 0.2933240536192262
          -0.7343340683553299 -0.612112488453374 0.2933799201242785 -0.7246121802492147 -0.6235646774882634 0.29343531011696194
          -0.7147112678480583 -0.6348632205172816 0.29349019548435806 -0.7046337556952476 -0.6460053161896495 0.2935445482197237
          -0.694382112236243 -0.6569882013415723 0.29359834043178723 -0.6839588492182695 -0.6678091516852085 0.2936515443540231
          -0.6733665210791742 -0.6784654824882201 0.2937041323538996 -0.662607724325603 -0.6889545492437327 0.29375607694209765
          -0.6516850969006449 -0.6992737483305356 0.2938073507816977 -0.640601317541102 -0.7094205176633598 0.29385792669733246
          -0.6293591051245251 -0.7193923373330653 0.29390777768430276 -0.6179612180061971 -0.7291867302365826 0.29395687691765104
          -0.6064104533461987 -0.7388012626964438 0.2940051977611932 -0.5947096464267441 -0.7482335450697535 0.29405271377650455
          -0.5828616699599296 -0.7574812323464406 0.2940993987318566 -0.570869433386084 -0.7665420247366452 0.29414522661110115
          -0.5708694333860835 -0.7665420247366451 0.2941452266111012 -0.5587359906685583 -0.7754143489819169 0.294188171285956
          -0.5464649012310396 -0.7840947576726093 0.2942303905324581 -0.5340592035528855 -0.7925811214837046 0.29427186914159903
          -0.5215219689648314 -0.8008713592399387 0.29431259204495286 -0.5088563008853373 -0.8089634384211297 0.29435254431914554
          -0.49606533404919273 -0.8168553756553909 0.2943917111903009 -0.48315223372856453 -0.8245452372000988 0.2944300780384557
          -0.4701201949466811 -0.8320311394105125 0.29446763040194995 -0.4569724416843457 -0.8393112491959229 0.294504353981783
          -0.44371222607949234 -0.8463837844632278 0.2945402346459415 -0.430342827619963 -0.8532470145478256 0.2945752584336939
          -0.41686755232972117 -0.859899260631724 0.29460941155985115 -0.40328973194869766 -0.8663388961487645 0.29464268041899155
          -0.3896127231064783 -0.8725643471768663 0.29467505158965135 -0.3758399064900333 -0.8785740928171979 0.2947065118384748
          -0.36197468600569715 -0.8843666655601816 0.29473704812432955 -0.34802048793561147 -0.8899406516382509 0.29476664760237786
          -0.33398076008883293 -0.8952946913652733 0.29479529762810924 -0.3198589709473234 -0.9004274794625569 0.294822985761331
          -0.3056586088070308 -0.9053377653713698 0.29484969977011277 -0.3056586088070308 -0.9053377653713698 0.29484969977011277
          -0.2913810168437019 -0.9100235169049857 0.2948801480313858 -0.27703146724126193 -0.914484715355874 0.2949089207512057
          -0.26261349222266794 -0.9187202539646822 0.294936007733347 -0.24813064106456184 -0.9227290815164357 0.2949613993198503
          -0.23358647922396036 -0.9265102026037707 0.29498508639399756 -0.21898458746086868 -0.9300626778764436 0.295007060383124
          -0.20432856095704555 -0.9333856242770513 0.2950273132612682 -0.1896220084311222 -0.9364782152629021 0.2950458375516539
          -0.17486855125030498 -0.9393396810139811 0.2950626263290083 -0.1600718225388702 -0.9419693086269565 0.2950776732217103
          -0.14523546628367856 -0.9443664422951799 0.2950909724137761 -0.13036313643692443 -0.9465304834746311 0.2951025186466714
          -0.1154584960163425 -0.9484608910357695 0.2951123072209609 -0.10052521620309274 -0.9501571814012455 0.29512033399778204
          -0.0855669754375461 -0.9516189286694453 0.2951265954001571 -0.07058745851319337 -0.9528457647238304 0.2951310884141271
          -0.05559035566890058 -0.9538373793280461 0.2951338105897234 -0.04057936167973475 -0.9545935202067724 0.2951347600417616
          -0.025558174946581413 -0.9551139931122975 0.2951339354504708 -0.010530496584783 -0.9553986618767938 0.29513133606194686
          <InformationKey name="L2_NORM_RANGE" location="vtkDataArray" length="2">
            <Value index="0">
              1
            </Value>
            <Value index="1">
              1
            </Value>
          </InformationKey>
        </DataArray>
        <DataArray type="Float64" Name="base_vector_2" NumberOfComponents="3" format="ascii" RangeMin="0.9999999999999997" RangeMax="1.0000000000000009">
          -0.001451145318433933 -0.28972642065392207 0.9571084031353672 0.0031000065354752637 -0.28973158382386366 0.957102919906943
          0.0076502554834603775 -0.28966532359677744 0.9570974213195923 0.01219848146758562 -0.2895276873421806 0.9570919053634163
          0.0167435659141858 -0.28931873997475765 0.9570863700314077 0.021284392008075248 -0.28903856391600935 0.957080813320494
          0.02581984496586659 -0.2886872590516356 0.9570752332325778 0.030348812308330086 -0.28826494268466885 0.9570696277755759
          0.03487018413173293 -0.287771749484375 0.957063994964455 0.0393828533780885 -0.28720783143095296 0.9570583328222635
          0.043885716104253125 -0.28657335775604253 0.9570526393811604 0.04837767174980567 -0.28586851487907294 0.9570469126834391
          0.052857623403645915 -0.28509350633947417 0.9570411507825478 0.057324478069248064 -0.28424855272477423 0.9570353517441039
          0.061777146928505944 -0.28333389159460953 0.9570295136469036 0.06621454560411061 -0.2823497774006807 0.957023634583926
          0.07063559442039297 -0.2812964814026713 0.9570177126633317 0.07503921866257529 -0.28017429158016927 0.9570117460094527
          0.07942434883436766 -0.27898351254061504 0.9570057327637792 0.08378992091384846 -0.2777244654233084 0.9569996710859358
          0.08813487660757607 -0.27639748779950746 0.9569935591546528 0.08813487660757591 -0.276397487799507 0.9569935591546523
          0.0924688662360641 -0.27496833221634387 0.9569963035744598 0.09678068736480522 -0.2734704860527133 0.9569991597756446
          0.10106926129148064 -0.27190430147713407 0.9570021187334052 0.10533351494252557 -0.2702701475860543 0.9570051713306811
          0.10957238113855489 -0.26856841031340273 0.9570083083617196 0.1137847988583271 -0.26679949233598954 0.9570115205356877
          0.11796971350118307 -0.26496381297477134 0.9570147984803161 0.12212607714789275 -0.26306180809199997 0.9570181327455795
          0.1262528488198455 -0.2610939299842956 0.9570215138074116 0.13034899473652195 -0.259060647271657 0.957024932071453
          0.1344134885711834 -0.256962444782441 0.95702837787683 0.1384453117047137 -0.25479982343434515 0.9570318414999638
          0.14244345347755416 -0.2525733001114172 0.9570353131584108 0.14640691143966605 -0.2502834075371192 0.9570387830147256
          0.15033469159846424 -0.2479306941434929 0.9570422411803571 0.15422580866465452 -0.24551572393643784 0.957045677719565
          0.15807928629591855 -0.24303907635715172 0.957049082653359 0.1618941573383857 -0.24050134613976581 0.9570524459634675
          0.16566946406583066 -0.23790314316519745 0.9570557575963171 0.16940425841654128 -0.23524509231127944 0.9570590074670424
          0.16940425841654122 -0.23524509231127877 0.9570590074670419 0.173088972391646 -0.23254688311162197 0.9570591177098068
          0.1767309551834646 -0.2297910479412988 0.9570591641930923 0.18032930883832876 -0.2269782632270445 0.9570591457147912
          0.1838831461159729 -0.22410921938073036 0.9570590610631362 0.18739159070722722 -0.22118462062959887 0.9570589090171805
          0.1908537774490182 -0.21820518484311036 0.9570586883472846 0.19426885253662673 -0.21517164335644834 0.9570583978156126
          0.19763597373314912 -0.21208474079072293 0.9570580361766374 0.20095431057611066 -0.20894523486991678 0.9570576021776513
          0.20422304458118232 -0.20575389623462326 0.9570570945592872 0.20744136944294894 -0.2025115082526161 0.9570565120560459
          0.21060849123268036 -0.19921886682630308 0.9570558533968319 0.21372362859305774 -0.1958767801971062 0.9570551173054935
          0.21678601292980662 -0.19248606874682106 0.9570543025013741 0.2197948886001906 -0.18904756479600127 0.9570534076998691
          0.2227495130983178 -0.18556211239941822 0.9570524316129855 0.22564915723721823 -0.18203056713864685 0.9570513729499142
          0.22849310532764222 -0.17845379591183175 0.9570502304176045 0.23128065535354225 -0.1748326767206736 0.9570490027213446
          0.2340111191441915 -0.1711680984547086 0.9570476885653518 0.23401111914419165 -0.1711680984547086 0.9570476885653522
          0.23668710722134087 -0.16744561059524754 0.9570481601087683 0.23930554442082302 -0.16368139715842944 0.9570481997442545
          0.24186577831660439 -0.15987635213898765 0.9570478030412245 0.24436717033466504 -0.15603137978322068 0.9570469657156717
          0.24680909591483746 -0.15214739437488367 0.9570456836319959 0.24919094466934513 -0.14822532001851574 0.9570439528047854
          0.2515121205379986 -0.14426609042024974 0.9570417694005502 0.253772041940013 -0.14027064866615646 0.9570391297394126
          0.2559701419224034 -0.1362399469981801 0.957036030296748 0.2581058683049222 -0.13217494658770956 0.9570324677047789
          0.2601786838214992 -0.12807661730684616 0.9570284387541202 0.26218806625814867 -0.12394593749741789 0.9570239403952752
          0.2641335085873084 -0.11978389373779397 0.957018969740084 0.2660145190985707 -0.11559148060755797 0.9570135240631187
          0.2678306215257778 -0.11136970045009398 0.9570076008030304 0.2695813551704423 -0.10711956313313808 0.9570011975638453
          0.27126627502146433 -0.10284208580735732 0.9569943121162069 0.27288495187110934 -0.0985382926630145 0.9569869423985686
          0.2744369724272206 -0.0942092146847644 0.9569790865183321 0.2759219394216326 -0.0898558894046575 0.9569707427529347
          0.2759219394216325 -0.08985588940465705 0.9569707427529344 0.27734184660813077 -0.08549290239283036 0.9569600115785624
          0.27869345746808943 -0.08110873529161866 0.9569489692893121 0.27997644618534173 -0.07670445673205561 0.9569376238286732
          0.2811905036463209 -0.07228114042452338 0.9569259832390691 0.2823353375203573 -0.06783986489799654 0.9569140556590691
          0.2834106723359062 -0.06338171323799924 0.9569018493205695 0.28441624955269074 -0.058907772823341364 0.9568893725459467
          0.2853518276297347 -0.054419135061692714 0.9568766337451803 0.2862171820892711 -0.049916895124065164 0.9568636414129496
          0.28701210557650536 -0.04540215167826678 0.9568504041257048 0.2877364079152177 -0.040876006621380245 0.9568369305387079
          0.2883899161591885 -0.036339564811353586 0.9568232293830546 0.288972474639432 -0.03179393379774531 0.9568093094626683
          0.28948394500722396 -0.027240223551702636 0.9567951796512711 0.2899242062729111 -0.02267954619523671 0.9567808488893375
          0.29029315484049034 -0.01811301572985502 0.9567663261810198 0.2905907045379465 -0.013541747764625356 0.9567516205910599
          0.2908167866433396 -0.00896685924372953 0.956736741241678 0.2909713499066326 -0.004389468173579214 0.9567216973094448
          0.291054360567252 0.000189306650443144 0.9567064980221366 0.29105436056725204 0.00018930665044281092 0.9567064980221367
          0.29105946207846256 0.004775454150578007 0.9566930461607066 0.29099269419991436 0.009361449679308409 0.9566794735867273
          0.29085405999369135 0.013946166874641341 0.9566657829224847 0.2906435801769723 0.01852847937546176 0.9566519768201732
          0.2903612931236632 0.023107261098312182 0.9566380579613634 0.29000725486169343 0.027681386514223028 0.9566240290564709
          0.28958153906596823 0.03224973092555228 0.9566098928442124 0.28908423704698094 0.03681117074274887 0.9565956520910567
          0.2885154577350823 0.041364583760977625 0.9565813095906682 0.28787532766041 0.04590884943653972 0.9565668681633424
          0.2871639909284798 0.050442849163016446 0.9565523306554353 0.2863816091914422 0.05496546654707124 0.9565376999387861
          0.28552836161500866 0.05947558768384065 0.9565229789101309 0.2846044448410545 0.06397210143184451 0.9565081704905138
          0.28361007294590224 0.06845389968735183 0.9564932776246858 0.28254547739429675 0.07291987765812957 0.9564783032805046
          0.28141090698907745 0.07736893413651091 0.9564632504483197 0.2802066278165605 0.08179997177171094 0.9564481221403589
          0.27893292318763985 0.0862118973413265 0.9564329213901032 0.27759009357461933 0.09060362202195127 0.9564176512516579
          0.2775900935746193 0.09060362202195149 0.9564176512516577 0.2761823353972129 0.0949701183424293 0.9564015862787798
          0.2747068574577582 0.09931359260096695 0.9563853578920851 0.27316402778549265 0.10363298806785992 0.9563689757139414
          0.2715542309181485 0.10792725384488766 0.9563524494389891 0.2698778678103766 0.11219534512349616 0.9563357888308606
          0.26813535573812786 0.11643622344155347 0.9563190037188721 0.26632712819901305 0.12064885693861627 0.9563021039946905
          0.264453634808665 0.12483222060964272 0.9562850996089766 0.2625153411931278 0.1289852965570889 0.9562680005680078
          0.26051272887729565 0.13310707424132961 0.9562508169302747 0.25844629516943 0.13719655072933756 0.9562335588030618
          0.25631655304178047 0.14125273094156254 0.9562162363390043 0.25412403100733766 0.145274627896945 0.9561988597326321
          0.25186927299274614 0.14926126295601305 0.9561814392168891 0.2495528382074094 0.1532116660619881 0.9561639850596427
          0.24717530100881469 0.1571248759798537 0.9561465075601737 0.2447372507641125 0.16099994053331723 0.9561290170456561
          0.2422392917079798 0.16483591683961496 0.9561115238676186 0.2396820427968053 0.16863187154209203 0.9560940383984005
          0.2370661375592251 0.17238688104051025 0.9560765710275907 0.2370661375592251 0.1723868810405108 0.9560765710275902
          0.2343925140701657 0.17610011179272667 0.9560590462803311 0.23166126546157012 0.1797705543115663 0.9560416339716886
          0.2288730713953998 0.18339730993421788 0.9560243427334519 0.2260286255658923 0.1869794907689497 0.9560071811741677
          0.22312863552925066 0.19051621991447165 0.9559901578763014 0.22017382252990003 0.1940066316766078 0.9559732813934023