<?xml version="1.0"?>
<VTKFile type="UnstructuredGrid" version="0.1" byte_order="LittleEndian" header_type="UInt32" compressor="vtkZLibDataCompressor">
  <UnstructuredGrid>
    <FieldData>
      <DataArray type="Float64" Name="TIME" NumberOfTuples="1" format="ascii" RangeMin="1" RangeMax="1">
        1
      </DataArray>
    </FieldData>
    <Piece NumberOfPoints="210" NumberOfCells="10">
      <PointData>
        <DataArray type="Float64" Name="axial_strain" format="ascii" RangeMin="-0.000310125230408389" RangeMax="-0.00003400369200151632">
          -0.00003400369200151632 -0.00006650851849712366 -0.00009698038094670735 -0.0001254192793502673 -0.0001518252137078036 -0.00017619818401931608
          -0.0001985381902848049 -0.00021884523250427002 -0.0002371193106777114 -0.0002533604248051291 -0.0002675685748865231 -0.0002797437609218934
          -0.0002898859829112399 -0.0002979952408545627 -0.0003040715347518619 -0.0003081148646031373 -0.000310125230408389 -0.000310102632167617
          -0.0003080470698808213 -0.0003039585435480019 -0.00029783705316915876 -0.00029783705316949183 -0.0002846689495581631 -0.00027225459196356105
          -0.00026059398038568576 -0.0002496871148245372 -0.00023953399528011537 -0.00023013462175242028 -0.0002214889942414519 -0.00021359711274721027
          -0.00020645897726969537 -0.0002000745878089072 -0.00019444394436484574 -0.00018956704693751103 -0.00018544389552690307 -0.0001820744901330218
          -0.00017945883075586727 -0.00017759691739543948 -0.0001764887500517384 -0.0001761343287247641 -0.0001765336534145165 -0.00017768672412099562
          -0.00017768672412099562 -0.00018319245623215158 -0.00018815792417548939 -0.00019258312795100902 -0.0001964680675587105 -0.0001998127429985938
          -0.00020261715427065895 -0.00020488130137490598 -0.00020660518431133478 -0.00020778880307994546 -0.00020843215768073797 -0.00020853524811371234
          -0.00020809807437886853 -0.00020712063647620655 -0.0002056029344057264 -0.00020354496816742812 -0.00020094673776131167 -0.00019780824318737708
          -0.00019412948444562427 -0.00018991046153605333 -0.00018515117445866425 -0.00018515117445816465 -0.000182721158154657 -0.0001803828854517464
          -0.00017813635634943286 -0.0001759815708477164 -0.00017391852894659693 -0.00017194723064607452 -0.0001700676759461492 -0.0001682798648468209
          -0.00016658379734808967 -0.00016497947344995545 -0.0001634668931524183 -0.00016204605645547823 -0.00016071696335913515 -0.00015947961386338915
          -0.0001583340079682402 -0.0001572801456736883 -0.00015631802697973346 -0.00015544765188637565 -0.00015466902039361493 -0.0001539821325014512
          -0.00015398213250134019 -0.00015616093679849007 -0.00015831498142817145 -0.00016044426639038434 -0.0001625487916851287 -0.00016462855731240456
          -0.0001666835632722119 -0.00016871380956455073 -0.00017071929618942106 -0.00017270002314682286 -0.00017465599043675617 -0.00017658719805922096
          -0.00017849364601421725 -0.000180375334301745 -0.00018223226292180428 -0.00018406443187439503 -0.00018587184115951728 -0.000187654490777171
          -0.0001894123807273562 -0.00019114551101007292 -0.00019285388162532113 -0.00019285388162348926 -0.00019416649148595175 -0.00019515136979583183
          -0.00019580851655312954 -0.00019613793175784488 -0.00019613961540997787 -0.0001958135675095285 -0.00019515978805649677 -0.00019417827705088263
          -0.00019286903449268613 -0.00019123206038190732 -0.0001892673547185461 -0.00018697491750260256 -0.00018435474873407657 -0.00018140684841296827
          -0.0001781312165392776 -0.00017452785311300456 -0.00017059675813414917 -0.00016633793160271136 -0.00016175137351869123 -0.00015683708388208872
          -0.00015683708388236628 -0.00015280087698342162 -0.0001491231374315927 -0.00014580386522687947 -0.00014284306036928206 -0.0001402407228588004
          -0.00013799685269543448 -0.00013611144987918435 -0.00013458451441004991 -0.00013341604628803127 -0.00013260604551312838 -0.00013215451208534125
          -0.00013206144600466985 -0.0001323268472711142 -0.00013295071588467433 -0.0001339330518453502 -0.00013527385515314184 -0.0001369731258080492
          -0.00013903086381007236 -0.0001414470691592112 -0.00014422174185546588 -0.00014422174185590997 -0.00014620642810043936 -0.00014815478235114866
          -0.00015006680460803777 -0.00015194249487110678 -0.00015378185314035564 -0.00015558487941578437 -0.00015735157369739294 -0.00015908193598518139
          -0.0001607759662791497 -0.00016243366457929787 -0.0001640550308856259 -0.0001656400651981338 -0.00016718876751682153 -0.00016870113784168918
          -0.00017017717617273664 -0.00017161688250996398 -0.0001730202568533712 -0.00017438729920295825 -0.00017571800955872518 -0.00017701238792067198
          -0.00017701238792089402 -0.00017167520713168573 -0.00016676659582011145 -0.0001622865539861712 -0.00015823508162986498 -0.00015461217875119282
          -0.0001514178453501547 -0.00014865208142675058 -0.0001463148869809805 -0.00014440626201284444 -0.00014292620652234245 -0.00014187472050947446
          -0.00014125180397424051 -0.00014105745691664063 -0.00014129167933667474 -0.0001419544712343429 -0.0001430458326096451 -0.00014456576346258133
          -0.0001465142637931516 -0.00014889133360135586 -0.0001516969728871942 -0.00015169697288752726 -0.00014500079192653726 -0.00013894691374735535
          -0.00013353533834998155 -0.00012876606573441584 -0.00012463909590065825 -0.00012115442884870875 -0.00011831206457856735 -0.00011611200309023406
          -0.00011455424438370887 -0.00011363878845899178 -0.00011336563531608279 -0.0001137347849549819 -0.00011474623737568912 -0.00011639999257820444
          -0.00011869605056252786 -0.00012163441132865937 -0.000125215074876599 -0.00012943804120634671 -0.00013430331031790254 -0.00013981088221126647
        </DataArray>
        <DataArray type="Float64" Name="base_vector_1" NumberOfComponents="3" format="ascii" RangeMin="0.998714143125751" RangeMax="0.9998728694647188">
          0.019914571730004382 0.9572398438533015 0.2881684338440417 0.004917193853026858 0.9574065691634817 0.2882593325767884
          -0.010065524378747526 0.9573381761740202 0.28835060766242804 -0.025029902819308725 0.9570353869512662 0.28844229392662213
          -0.03997228385647855 0.9564989798140444 0.2885344260296008 -0.054889033214112204 0.9557297887518941 0.2886270384491381
          -0.06977654074100192 0.9547287028336753 0.2887201654638027 -0.08463122118641753 0.9534966656068147 0.2888138411364801
          -0.0994495149622272 0.9520346744874623 0.28890809929817973 -0.114227888891548 0.9503437801418283 0.2890029735321241
          -0.12896283694387367 0.9484250858589672 0.28909849715812586 -0.14365088095664258 0.9462797469152764 0.28919470321725793
          -0.1582885713432033 0.943908969930975 0.2892916244568178 -0.1728724877871446 0.9413140122188234 0.28938929331559016
          -0.18739923992295837 0.9384961811253474 0.2894877419094107 -0.20186546800301464 0.935456833364827 0.2895870020170337
          -0.21626784355082307 0.9321973743463048 0.289687105066307 -0.23060307000056401 0.928719257493873 0.28978808212065466
          -0.2448678833228789 0.9250239835604913 0.2898899638658716 -0.25905905263690954 0.9211130999355897 0.28999278059723077
          -0.2731733808085802 0.9169881999467043 0.2900965622069071 -0.2731733808085799 0.9169881999467042 0.29009656220690705
          -0.28723092244185167 0.9126899431505298 0.2900561487097638 -0.30121678696694354 0.9081780415870876 0.290013707714633
          -0.31512772688775614 0.903453708121674 0.2899693758442169 -0.3289605155764477 0.8985182047128558 0.28992329098332936
          -0.34271194800718985 0.8933728420550489 0.28987559222586157 -0.35637884148372734 0.8880189792102458 0.28982641982138685
          -0.3699580363605701 0.8824580232289908 0.2897759151214261 -0.38344639675767356 0.8766914287607104 0.28972422052538677
          -0.39684081126845006 0.8707206976535116 0.28967147942619775 -0.41013819366095716 0.8645473785435556 0.2896178361556558
          -0.4233354835721185 0.8581730664341222 0.2895634359295015 -0.4364296471948209 0.8515994022644807 0.28950842479224426
          -0.4494176779577542 0.8448280724686839 0.28945294956175344 -0.46229659719783367 0.8378608085244048 0.2893971577736325
          -0.47506345482507983 0.830699386491941 0.28934119762539845 -0.48771532997980227 0.823345626543506 0.28928521792047823
          -0.5002493316819561 0.8158013924829343 0.28922936801204646 -0.5126625994725368 0.808068591255933 0.28917379774671975
          -0.5249523040468692 0.8001491724510005 0.2891186574081236 -0.537115647879677 0.7920451277911518 0.2890640976603555
          -0.5371156478796767 0.7920451277911517 0.28906409766035546 -0.549162147976666 0.7837323059714105 0.2890598087061381
          -0.5610785130496303 0.7752368385355937 0.2890564857809126 -0.5728619781648558 0.7665607756424245 0.28905415779338295
          -0.5845098108450514 0.7577062091655902 0.2890528537873064 -0.5960193116959664 0.7486752721780878 0.28905260293063917
          -0.6073878150247973 0.7394701384272031 0.2890534345045832 -0.6186126894502344 0.7300930218002483 0.2890553778925373
          -0.6296913385040179 0.7205461757811951 0.28905846256895396 -0.6406212012238629 0.7108318928983346 0.28906271808810896
          -0.6513997527376244 0.7009525041631042 0.2890681740727848 -0.6620245048385716 0.6909103785002189 0.2890748602028731
          -0.6724930065516379 0.6807079221692494 0.2890828062038993 -0.6828028446905259 0.6703475781777865 0.28909204183547366
          -0.6929516444055409 0.6598318256863417 0.2891025968796719 -0.7029370697220331 0.649163179405126 0.28911450112935033
          -0.7127568240693215 0.6383441889828569 0.2891277843763984 -0.7224086507999952 0.6273774383877437 0.2891424763999329
          -0.7318903336994683 0.616265545280803 0.2891586069544386 -0.741199697485672 0.6050111603816576 0.28917620575785696
          -0.7503346082987906 0.5936169668269734 0.28919530247963 -0.7503346082987912 0.5936169668269735 0.28919530247963005
          -0.7592909292055801 0.5821030506400879 0.28918489452775753 -0.7680703869911426 0.5704506307275877 0.2891815202096944
          -0.7766707942655284 0.5586623871392136 0.2891852537626478 -0.7850900035772997 0.5467410350712738 0.28919616717490965
          -0.7933259079835856 0.5346893242780835 0.28921433015326176 -0.801376441611713 0.5225100384740632 0.28923981009097055
          -0.809239580212255 0.510205994726613 0.28927267203638296 -0.8169133417033507 0.4977800428398818 0.2893129786621364
          -0.8243957867061484 0.48523506472955674 0.28936079023499617 -0.8316850190712206 0.47257397378879773 0.28941616458633007
          -0.8387791863958078 0.4597997142454428 0.289479157083235 -0.8456764805317472 0.4469152605106186 0.2895498206003251
          -0.8523751380839426 0.4339236165188851 0.28962820549219515 -0.8588734408992367 0.4208278150600512 0.2897143595665691
          -0.8651697165455449 0.40763091710279875 0.28980832805814705 -0.8712623387811163 0.3943360111102535 0.2899101536031595
          -0.8771497280137859 0.3809462123476473 0.29001987621464353 -0.8828303517500857 0.3674646621822122 0.29013753325844877
          -0.88830272503408 0.3538945273754567 0.29026315942998493 -0.8935654108758054 0.34023899936797086 0.2903967867317234
          -0.8935654108758051 0.34023899936797086 0.2903967867317233 -0.8986114107995784 0.32648780331162375 0.2905721181963276
          -0.9034466566005701 0.31265509049584406 0.29075233702100245 -0.9080697745569691 0.29874406730938075 0.2909373231039733
          -0.9124794393450418 0.2847579639248166 0.2911269546991285 -0.916674374460877 0.2707000335807517 0.2913211084524068
          -0.9206533526316765 0.25657355185652814 0.2915196594388035 -0.9244151962164586 0.24238181593964483 0.291722481199987
          -0.9279587775960465 0.22812814388600836 0.2919294457825171 -0.9312830195522102 0.21381587387317216 0.2921404237766547
          -0.9343868956358382 0.1994483634467164 0.2923552843557555 -0.9372694305240138 0.18502898875992385 0.2925738953162349
          -0.9399297003658743 0.17056114380690918 0.29279612311809844 -0.9423668331171342 0.15604823964936074 0.29302183292602324
          -0.9445800088631502 0.14149370363705693 0.29325088865098314 -0.9465684601304211 0.1269009786223207 0.2934831529924061
          -0.9483314721863991 0.11227352216857775 0.2937184874808525 -0.9498683833275102 0.0976148057531874 0.2939567525212038
          -0.95117858515527 0.08292831396471342 0.2941978074363508 -0.9522615228403883 0.06821754369481058 0.2944415105113691
          -0.9531166953747645 0.053486003324896336 0.29468771903817026 -0.9531166953747653 0.05348600332489637 0.2946877190381704
          -0.9537535058691698 0.038745708111479864 0.294902725496207 -0.954161775023324 0.023994149247490625 0.29512011030197727
          -0.9543412490203719 0.009234867966709484 0.2953398425539624 -0.9542917288467042 -0.00552858853441978 0.29556189067292704
          -0.9540130704284648 -0.020292667942404932 0.2957862224048683 -0.953505184755108 -0.035053813675302824 0.29601280482415393
          -0.9527680379899186 -0.04980846573410131 0.2962416043368459 -0.9518016515674568 -0.06455306155669044 0.29647258668421217
          -0.9506061022778562 -0.07928403687422127 0.2967057169464272 -0.949181522337927 -0.09399782656965355 0.2969409595464612
          -0.9475280994490164 -0.10869086553829024 0.2971782782541583 -0.9456460768415745 -0.12335958955009624 0.2974176361905058
          -0.9435357533063813 -0.138000436113598 0.29765899583209265 -0.9411974832124 -0.15260984534115982 0.2979023190157598
          -0.9386316765112059 -0.1671842608154305 0.2981475669434407 -0.9358387987279708 -0.18172013045675472 0.2983947001871939
          -0.9328193709389563 -0.1962139073913412 0.29864367869442676 -0.9295739697354999 -0.21066205081998093 0.29889446179331175
          -0.9261032271744578 -0.22506102688710436 0.29914700819839346 -0.9224078307150867 -0.23940730954997042 0.2994012760163889
          -0.9224078307150869 -0.2394073095499705 0.29940127601638894 -0.9184847104220824 -0.2536958465664122 0.29966985641199706
          -0.9143375926320216 -0.2679261598157989 0.29994164583564614 -0.9099672884107598 -0.2820947341444639 0.30021648418332897
          -0.9053746642039848 -0.2961980648111844 0.3004942097710114 -0.9005606417279542 -0.3102326583569302 0.3007746593853978
          -0.8955261978465913 -0.32419503347387446 0.3010576683353954 -0.8902723644349442 -0.3380817218734549 0.30134307050426434
          -0.8848002282289962 -0.35188926915327773 0.30163069840244183 -0.8791109306618239 -0.3656142356626484 0.3019203832210243
          -0.8732056676861041 -0.37925319736652 0.3022119548858948 -0.8670856895829792 -0.39280274670764553 0.3025052421124803
          -0.8607523007572755 -0.40625949346672063 0.3028000724611253 -0.8542068595191022 -0.4196200656203056 0.30309627239306547
          -0.8474507778518259 -0.4328811101963122 0.30339366732698747 -0.8404855211664501 -0.44603929412684074 0.3036920816961578
          -0.8333126080424201 -0.45909130509815743 0.3039913390061071 -0.8259336099548661 -0.4720338523975952 0.3042912618928513
          -0.8183501509883241 -0.48486366775716605 0.30459167218163535 -0.8105639075369595 -0.49757750619367186 0.30489239094618326
          -0.802576607991319 -0.5101721468450984 0.30519323856843383 -0.8025766079913182 -0.5101721468450982 0.30519323856843394
          -0.7943882009632424 -0.522646918390386 0.3054949335187158 -0.7860036308976095 -0.5349946428356096 0.3057951911554922
          -0.7774248466517608 -0.547212228099478 0.30609385808238665 -0.7686538462196051 -0.5592966115550222 0.30639078099520717
          -0.7596926762959754 -0.5712447608103153 0.30668580673255325 -0.7505434318284867 -0.5830536744828709 0.30697878232652914
          -0.741208255556987 -0.5947203829675182 0.3072695550535497 -0.7316893375406921 -0.6062419491975587 0.30755797248522176
          -0.721988914673097 -0.6176154693990071 0.30784388253928724 -0.712109270184766 -0.6288380738377208 0.30812713353060966
          -0.7020527331340938 -0.6399069275592237 0.30840757422219267 -0.6918216778861521 -0.6508192311210346 0.3086850538762095
          -0.6814185235797222 -0.6615722213173054 0.30895942230503315 -0.6708457335826263 -0.6721631718955834 0.30923052992224653
          -0.6601058149354652 -0.6825893942655057 0.3094982277936212 -0.6492013177838906 -0.6928482381992442 0.30976236768804405
          -0.6381348347995169 -0.7029370925235119 0.31002280212838007 -0.626909000589609 -0.7128533858029499 0.31027938444225356
          -0.6155264910956562 -0.7225945870147141 0.3105319688127307 -0.6039900229809733 -0.732158206214081 0.3107804103288888
          -0.603990022980973 -0.732158206214081 0.3107804103288888 -0.5923044501403812 -0.7415446825567638 0.3110141672046023
          -0.5804737912104666 -0.7507455414911368 0.311244372250297 -0.5685010120988442 -0.759758568900378 0.3114709454586083
          -0.5563891121872306 -0.7685815982657729 0.31169380753332643 -0.5441411235646565 -0.7772125111650907 0.3119128799119807
          -0.5317601102533661 -0.7856492377585744 0.3121280847882666 -0.5192491674276054 -0.7938897572624416 0.31233934513430894
          -0.5066114206254858 -0.8019320984097913 0.3125465847227547 -0.493850024954145 -0.8097743398988233 0.3127497281486901
          -0.48096816428839795 -0.8174146108282694 0.31294870085137505 -0.467969050463087 -0.8248510911199496 0.31314342913578974
          -0.4548559224593377 -0.8320820119283615 0.3133338401939867 -0.4416320455849302 -0.8391056560372192 0.31351986212624194
          -0.42830071064899145 -0.8459203582428584 0.3137014239620004 -0.4148652331312257 -0.852524505724433 0.31387845568060907
          -0.4013289523458864 -0.8589165384008217 0.3140508882318328 -0.387695230600708 -0.8650949492741802 0.3142186535561449
          -0.3739674523510106 -0.8710582847600649 0.31438168460478916 -0.3601490233491871 -0.8768051450040656 0.3145399153596079
          -0.34624336978979353 -0.8823341841848864 0.31469328085262704 -0.34624336978979375 -0.8823341841848864 0.31469328085262704
          -0.33224161202393654 -0.8876399946329694 0.3148661621985497 -0.3181571587381896 -0.8927273142201008 0.31503074451868296
          -0.30399342583583144 -0.897594838469483 0.3151869601402873 -0.2897538501652117 -0.9022413160143427 0.3153347439598404
          -0.27544188869327546 -0.9066655489368083 0.31547403346565117 -0.26106101767351053 -0.9108663930940326 0.315604768759732
          -0.24661473180852078 -0.9148427584314669 0.3157268925789203 -0.23210654340741554 -0.918593609283196 0.31584035031524405
          -0.21753998153822396 -0.9221179646592526 0.3159450900355211 -0.20291859117552802 -0.9254148985198223 0.3160410625001866
          -0.18824593234352371 -0.9284835400362664 0.31612822118134415 -0.17352557925471146 -0.9313230738388809 0.31620652228002877
          -0.15876111944442128 -0.9339327402513204 0.31627592474268174 -0.14395615290138075 -0.9363118355116169 0.316336390276825
          -0.129114291194533 -0.9384597119797247 0.3163878833659347 -0.1142391565963159 -0.9403757783315312 0.3164303712835032
          -0.09933438120260873 -0.9420594997392683 0.3164638241062888 -0.08440360604956443 -0.9435103980382709 0.31648821472674404
          -0.06945048022753042 -0.9447280518800256 0.31650351886461975 -0.054478659992281964 -0.9457120968714612 0.3165097150777392
          <InformationKey name="L2_NORM_RANGE" location="vtkDataArray" length="2">
            <Value index="0">
              0.99871414313
            </Value>
            <Value index="1">
              0.99987286946
            </Value>
          </InformationKey>
        </DataArray>
        <DataArray type="Float64" Name="base_vector_2" NumberOfComponents="3" format="ascii" RangeMin="0.9996351821481472" RangeMax="0.9999996269433861">
          -0.006997865577764689 -0.28803204154812356 0.9575775247037394 -0.0024740991354240682 -0.28819724718849526 0.9575503122779332
          0.002049742231808427 -0.2882917287498442 0.9575229731371331 0.006572549592504778 -0.2883156127454769 0.9574954965528117
          0.011093219039939733 -0.2882690429233732 0.9574678718140186 0.01561065194767175 -0.28815218012375865 0.9574400882325386
          0.020123755221674672 -0.28796520213331167 0.9574121351479894 0.02463144154898722 -0.28770830353606924 0.9573840019328526
          0.029132629642853097 -0.2873816955611179 0.9573556779974421 0.03362624448432033 -0.28698560592713407 0.9573271527948055
          0.03811121756027025 -0.28652027868385266 0.9572984158255557 0.04258648709785584 -0.28598597405053705 0.9572694566426354
          0.047050998295316726 -0.2853829682515233 0.9572402648560092 0.0515037035491544 -0.2847115533489146 0.9572108301372856
          0.055943562677638864 -0.2839720370724925 0.9571811422242628 0.06036954314063228 -0.2831647426469296 0.9571511909254038
          0.06478062025570316 -0.28229000861636555 0.9571209661242347 0.06917577741051817 -0.28134818866642397 0.9570904577836645
          0.07355400627149106 -0.28033965144374284 0.9570596559502311 0.0779143069886728 -0.279264780373089 0.9570285507582665
          0.0822556883968722 -0.27812397347213025 0.956997132433984 0.08225568839687214 -0.27812397347213 0.9569971324339839
          0.0866369796065545 -0.2767484363089483 0.9570094863266408 0.09100014416079799 -0.27530035792564544 0.9570224255662062
          0.09534403633709232 -0.27378001428541 0.9570359036483922 0.09966751487674286 -0.272187699407088 0.9570498734181849
          0.10396944326756027 -0.2705237252906726 0.9570642870875639 0.10824869002522097 -0.268788421838395 0.9570790962534884
          0.11250412897322593 -0.266982136771436 0.957094251916135 0.1167346395213939 -0.26510523554228205 0.957109704497385
          0.12093910694282084 -0.26315810124275707 0.9571254038595558 0.12511642264923792 -0.26114113450775056 0.9571412993243669
          0.12926548446470615 -0.25905475341467044 0.957157339692136 0.1333851968975756 -0.25689939337865464 0.9571734732611987
          0.13747447141065106 -0.2546755070435628 0.9571896478475435 0.14153222668949472 -0.2523835641687837 0.9572058108046576
          0.1455573889088051 -0.2500240515118922 0.9572219090435762 0.14954889199680724 -0.24759747270718002 0.9572378890531268
          0.15350567789759112 -0.24510434814009996 0.9572536969203624 0.15742669683133775 -0.24254521481766178 0.9572692783511807
          0.16131090755237001 -0.23992062623479948 0.9572845786911133 0.1651572776049683 -0.23723115223676838 0.9572995429462887
          0.16515727760496834 -0.23723115223676816 0.9572995429462885 0.16891583379627936 -0.23456980515465797 0.9572997870999085
          0.17263300896026762 -0.23184927002491762 0.9572996776966441 0.1763078911495618 -0.22907019568504383 0.9572992047198454
          0.1799395786615007 -0.2262332449738862 0.9572983581034942 0.18352718025217496 -0.2233390945689454 0.9572971277359665
          0.1870698153478688 -0.22038843482041637 0.9572955034638342 0.19056661425385596 -0.21738196958201383 0.957293475095706
          0.19401671836049805 -0.21432041603862328 0.9572910324061042 0.197419280346599 -0.21120450453082096 0.9572881651393786
          0.2007734643799673 -0.20803497837630625 0.9572848630136515 0.2040784463151415 -0.20481259368829174 0.9572811157248005
          0.20733341388822943 -0.20153811919089548 0.957276912950469 0.2105375669088201 -0.19821233603158017 0.9572722443541084
          0.21369011744892052 -0.19483603759068902 0.9572670995890489 0.21679029002887612 -0.19141002928812312 0.9572614683026004
          0.21983732180022975 -0.18793512838720816 0.9572553401401744 0.2228304627254793 -0.18441216379579972 0.957248704749436
          0.22576897575469024 -0.18084197586467976 0.9572415517844772 0.22865213699892478 -0.17722541618328247 0.957233870910011
          0.23147923590044595 -0.17356334737281753 0.9572256518055885 0.23147923590044606 -0.17356334737281776 0.9572256518055888
          0.23427178068207632 -0.16977978665308258 0.9572252834454629 0.2370109530162129 -0.165952457457189 0.9572226160766444
          0.23969605736429098 -0.16208213262630233 0.9572176243527266 0.24232640913270387 -0.15816959618142046 0.9572102835491753
          0.24490133485277338 -0.15421564317138892 0.9572005695743999 0.2474201723587012 -0.150221079518016 0.9571884589806972
          0.24988227096345617 -0.14618672185830917 0.9571739289750625 0.25228699163255075 -0.1421133973838613 0.9571569574298655
          0.2546337071556621 -0.13800194367741692 0.9571375228933872 0.25692180231605205 -0.13385320854663918 0.957115604600212
          0.2591506740577419 -0.12966804985511327 0.9570911824814732 0.2613197316503969 -0.1254473353506106 0.957064237174946
          0.2634283968518779 -0.12119194249064402 0.9570347500349853 0.26547610406841327 -0.11690275826534857 0.9570027031423045
          0.267462300512352 -0.11258067901771374 0.9569680793135906 0.2693864463574509 -0.10822661026120184 0.9569308621109518
          0.2712480148916574 -0.1038414664947861 0.9568910358511935 0.27304649266734116 -0.09942617101544071 0.9568485856149214
          0.274781379648937 -0.09498165572811357 0.9568034972554627 0.2764521893579558 -0.09050886095322341 0.9567557574076083
          0.27645218935795574 -0.09050886095322319 0.9567557574076082 0.27806619043877817 -0.0860804539125044 0.956696613310438
          0.2796120822409748 -0.08163023354282462 0.9566359676672708 0.28108952114457575 -0.07715923852104445 0.9565738627670712
          0.28249817934189314 -0.07266851322699408 0.9565103413044018 0.2838377449369518 -0.06815910750511034 0.9564454463662084
          0.285107922041344 -0.06363207642431412 0.9563792214184632 0.2863084308664791 -0.05908848003617462 0.956311710292669
          0.2874390078121951 -0.054529383131419196 0.9562429571722334 0.2884994055517026 -0.049955854994839455 0.9561730065787104
          0.28948939311283195 -0.04536896915864974 0.9561019033579157 0.29040875595555454 -0.040769803154346196 0.9560296926659206
          0.29125729604575 -0.03615943826313317 0.9559564199549271 0.29203483192519347 -0.03153895926496164 0.9558821309590277
          0.2927411987777347 -0.02690945418623991 0.9558068716798539 0.2933762484916455 -0.02227201404627588 0.9557306883721204
          0.2939398497181097 -0.017627732602503388 0.9556536275290624 0.2944318879258323 -0.012977706094552843 0.9555757358677786
          0.2948522654517443 -0.008323032987223922 0.9554970603144758 0.29520090154778234 -0.0036648137124174474 0.9554176479896257
          0.2954777324237202 0.0009958495899127784 0.9553375461930336 0.29547773242372033 0.0009958495899122788 0.9553375461930339
          0.29565205854571425 0.005697851565101886 0.9552661492857533 0.29575377730716046 0.010403889086522233 0.9551939598621448
          0.29578279335691204 0.015112839615361418 0.9551209877826311 0.2957390286650702 0.019823578369354444 0.9550472431340624
          0.2956224225736655 0.02453497858898057 0.9549727362289041 0.29543293184328356 0.029245911804742453 0.9548974776043666
          0.2951705306956105 0.033955248105482116 0.9548214780214687 0.2948352108518781 0.03866185640765779 0.9547447484640443
          0.2944269815671867 0.04336460472552739 0.9546673001376829 0.2939458696606878 0.04806236044217893 0.954589144468607
          0.2933919195416052 0.05275399058133451 0.9545102931024911 0.2927651932310795 0.05743836207987646 0.954430757903213
          0.29206577037981685 0.062114342061025674 0.9543505509515431 0.2912937482815277 0.06678079810810728 0.9542696845437726
          0.29044924188213855 0.07143659853884549 0.9541881711902742 0.2895323837847652 0.07608061268011634 0.9541060236140038
          0.2885433242504317 0.08071171114309833 0.9540232547489316 0.287482231194525 0.08532876609875212 0.9539398777384174
          0.28634929017897304 0.08993065155356661 0.9538559059335141 0.28514470440013673 0.09451624362550526 0.953771352891212
          0.28514470440013673 0.0945162436255052 0.953771352891212 0.283886843854422 0.0990635239619217 0.9536829513578686
          0.2825611854459339 0.10358831745348829 0.9535936659194855 0.2811680785068795 0.10808958494283771 0.9535035482353187
          0.2797078884421934 0.11256629251072653 0.9534126502746383 0.27818099665577495 0.11701741172521773 0.9533210243001149
          0.2765878004728305 0.12144191988986658 0.9532287228510781 0.2749287130583319 0.12583880029085104 0.9531357987266593
          0.2732041633316037 0.13020704244297987 0.9530423049688199 0.27141459587705397 0.13454564233452743 0.9529482948452688
          0.2695604708510616 0.1388536026708258 0.9528538218322765 0.2676422638850378 0.1431299331165608 0.9527589395973912
          0.2656604659846763 0.1473736505367083 0.9526637019820567 0.26361558342541125 0.15158377923605187 0.9525681629841466
          0.26150813764410086 0.15575935119722423 0.952472376740408 0.2593386651269553 0.15989940631720984 0.9523763975088302
          0.2571077172937306 0.16400299264225326 0.9522802796509375 0.2548158603782087 0.16806916660111154 0.9521840776140142
          0.25246367530498603 0.1720969932365934 0.9520878459132647 0.25005175756259507 0.17608554643532648 0.9519916391139172
          0.2475807170729798 0.1800339091556975 0.9518955118132706 0.2475807170729798 0.18003390915569806 0.9518955118132703
          0.24505239081488867 0.18394070776862487 0.9517992899450907 0.2424649516206285 0.1878054059697684 0.9517036197688438
          0.23981906899723895 0.19162708871666317 0.9516085485401066 0.23711542676842923 0.19540485149114584 0.9515141233683813
          0.23435472291143333 0.19913780052397523 0.9514203912014909 0.23153766939029793 0.2028250530169456 0.9513273988100003
          0.22866499198563778 0.20646573736244284 0.9512351927716685 0.22573743012089786 0.21005899336038453 0.9511438194559374