<?xml version="1.0"?>
<VTKFile type="UnstructuredGrid" version="0.1" byte_order="LittleEndian" header_type="UInt32" compressor="vtkZLibDataCompressor">
  <UnstructuredGrid>
    <Piece NumberOfPoints="24" NumberOfCells="12">
      <PointData>
        <DataArray type="Float64" Name="node_value" format="ascii" RangeMin="1" RangeMax="1">
          1 1 1 1 1 1
          1 1 1 1 1 1
          1 1 1 1 1 1
          1 1 1 1 1 1
        </DataArray>
        <DataArray type="Float64" Name="base_vector_1" NumberOfComponents="3" format="ascii" RangeMin="0.9999999999999993" RangeMax="1.0000000000000002">
          -0.3090169943749472 0.9510565162951539 5.551115123125783e-17 -0.3090169943749472 0.9510565162951539 5.551115123125783e-17
          -0.8090169943749473 0.5877852522924734 1.1102230246251565e-16 -0.8090169943749473 0.5877852522924734 1.1102230246251565e-16
          -1 2.7476618026966064e-16 1.1775693440128314e-16 -1 2.7476618026966064e-16 1.1775693440128314e-16
          -0.8090169943749475 -0.5877852522924728 1.1102230246251565e-16 -0.8090169943749475 -0.5877852522924728 1.1102230246251565e-16
          -0.3090169943749476 -0.9510565162951532 1.1102230246251565e-16 -0.3090169943749476 -0.9510565162951532 1.1102230246251565e-16
          0.30901699437494695 -0.9510565162951534 5.551115123125783e-17 0.30901699437494695 -0.9510565162951534 5.551115123125783e-17
          0.8090169943749468 -0.5877852522924731 0 0.8090169943749468 -0.5877852522924731 0
          0.9999999999999996 -3.925231146709437e-16 7.395570986446986e-32 0.9999999999999996 -3.925231146709437e-16 7.395570986446986e-32
          0.8090169943749471 0.5877852522924725 -5.551115123125783e-17 0.8090169943749471 0.5877852522924725 -5.551115123125783e-17
          0.30901699437494773 0.9510565162951528 5.551115123125783e-17 0.30901699437494773 0.9510565162951528 5.551115123125783e-17
          0 1 0 0 1 0
          -1 0 0 -1 0 0
          <InformationKey name="L2_NORM_RANGE" location="vtkDataArray" length="2">
            <Value index="0">
              1
            </Value>
            <Value index="1">
              1
            </Value>
          </InformationKey>
        </DataArray>
        <DataArray type="Float64" Name="base_vector_2" NumberOfComponents="3" format="ascii" RangeMin="0.9999999999999993" RangeMax="1.0000000000000002">
          -5.551115123125783e-17 0 1.0000000000000002 -5.551115123125783e-17 0 1.0000000000000002
          0 -2.220446049250313e-16 1 0 -2.220446049250313e-16 1
          1.177569344012831e-16 -2.220446049250313e-16 1 1.177569344012831e-16 -2.220446049250313e-16 1
          2.220446049250313e-16 -1.1102230246251565e-16 0.9999999999999999 2.220446049250313e-16 -1.1102230246251565e-16 0.9999999999999999
          2.7755575615628914e-16 1.1102230246251565e-16 0.9999999999999998 2.7755575615628914e-16 1.1102230246251565e-16 0.9999999999999998
          3.3306690738754696e-16 1.6653345369377348e-16 0.9999999999999998 3.3306690738754696e-16 1.6653345369377348e-16 0.9999999999999998
          1.6653345369377348e-16 1.8041124150158794e-16 0.9999999999999997 1.6653345369377348e-16 1.8041124150158794e-16 0.9999999999999997
          7.395570986446986e-32 2.775557561562892e-16 0.9999999999999996 7.395570986446986e-32 2.775557561562892e-16 0.9999999999999996
          -1.6653345369377348e-16 2.498001805406602e-16 0.9999999999999993 -1.6653345369377348e-16 2.498001805406602e-16 0.9999999999999993
          -2.220446049250313e-16 5.551115123125783e-17 0.9999999999999993 -2.220446049250313e-16 5.551115123125783e-17 0.9999999999999993
          0 0 1 0 0 1
          0 1 0 0 1 0
          <InformationKey name="L2_NORM_RANGE" location="vtkDataArray" length="2">
            <Value index="0">
              1
            </Value>
            <Value index="1">
              1
            </Value>
          </InformationKey>
        </DataArray>
        <DataArray type="Float64" Name="base_vector_3" NumberOfComponents="3" format="ascii" RangeMin="0.9999999999999993" RangeMax="1.0000000000000002">
          0.9510565162951539 0.3090169943749473 2.220446049250313e-16 0.9510565162951539 0.3090169943749473 2.220446049250313e-16
          0.5877852522924734 0.8090169943749473 1.1102230246251565e-16 0.5877852522924734 0.8090169943749473 1.1102230246251565e-16
          2.7476618026966064e-16 1 2.220446049250313e-16 2.7476618026966064e-16 1 2.220446049250313e-16
          -0.5877852522924728 0.8090169943749476 2.220446049250313e-16 -0.5877852522924728 0.8090169943749476 2.220446049250313e-16
          -0.9510565162951532 0.3090169943749477 3.3306690738754696e-16 -0.9510565162951532 0.3090169943749477 3.3306690738754696e-16
          -0.9510565162951534 -0.30901699437494706 3.3306690738754696e-16 -0.9510565162951534 -0.30901699437494706 3.3306690738754696e-16
          -0.5877852522924732 -0.8090169943749469 2.3592239273284576e-16 -0.5877852522924732 -0.8090169943749469 2.3592239273284576e-16
          -3.925231146709437e-16 -0.9999999999999996 2.775557561562892e-16 -3.925231146709437e-16 -0.9999999999999996 2.775557561562892e-16
          0.5877852522924725 -0.8090169943749472 2.914335439641036e-16 0.5877852522924725 -0.8090169943749472 2.914335439641036e-16
          0.9510565162951528 -0.30901699437494773 2.220446049250313e-16 0.9510565162951528 -0.30901699437494773 2.220446049250313e-16
          1 0 0 1 0 0
          0 0 -1 0 0 -1
          <InformationKey name="L2_NORM_RANGE" location="vtkDataArray" length="2">
            <Value index="0">
              1
            </Value>
            <Value index="1">
              1
            </Value>
          </InformationKey>
        </DataArray>
      </PointData>
      <CellData>
        <DataArray type="Float64" Name="cross_section_radius" format="ascii" RangeMin="0.1" RangeMax="0.1">
          0.1 0.1 0.1 0.1 0.1 0.1
          0.1 0.1 0.1 0.1 0.1 0.1
        </DataArray>
      </CellData>
      <Points>
        <DataArray type="Float64" Name="Points" NumberOfComponents="3" format="ascii" RangeMin="1.999999999999997" RangeMax="4">
          2 0 0 1.618033988749895 1.1755705045849463 0
          1.6180339887498947 1.175570504584946 0 0.6180339887498948 1.9021130325903068 0
          0.6180339887498949 1.9021130325903066 0 -0.6180339887498946 1.9021130325903066 0
          -0.6180339887498942 1.9021130325903064 0 -1.618033988749894 1.1755705045849458 0
          -1.6180339887498936 1.1755705045849458 0 -1.9999999999999987 2.220446049250313e-16 0
          -1.9999999999999987 4.440892098500626e-16 0 -1.6180339887498938 -1.175570504584945 0
          -1.6180339887498938 -1.1755705045849447 0 -0.6180339887498947 -1.902113032590305 0
          -0.6180339887498948 -1.902113032590305 0 0.6180339887498936 -1.902113032590305 0
          0.6180339887498935 -1.902113032590305 0 1.6180339887498922 -1.1755705045849452 0
          1.6180339887498922 -1.1755705045849452 0 1.999999999999997 -7.771561172376096e-16 0
          2 0 0 2 2 0
          -2 0 0 -4 0 0
          <InformationKey name="L2_NORM_RANGE" location="vtkDataArray" length="2">
            <Value index="0">
              2
            </Value>
            <Value index="1">
              4
            </Value>
          </InformationKey>
        </DataArray>
      </Points>
      <Cells>
        <DataArray type="Int64" Name="connectivity" format="ascii" RangeMin="0" RangeMax="23">
          0 1 2 3 4 5
          6 7 8 9 10 11
          12 13 14 15 16 17
          18 19 20 21 22 23
        </DataArray>
        <DataArray type="Int64" Name="offsets" format="ascii" RangeMin="2" RangeMax="24">
          2 4 6 8 10 12
          14 16 18 20 22 24
        </DataArray>
        <DataArray type="UInt8" Name="types" format="ascii" RangeMin="4" RangeMax="4">
          4 4 4 4 4 4
          4 4 4 4 4 4
        </DataArray>
      </Cells>
    </Piece>
  </UnstructuredGrid>
</VTKFile>
