<?xml version="1.0"?>
<VTKFile type="UnstructuredGrid" version="0.1" byte_order="LittleEndian" header_type="UInt32" compressor="vtkZLibDataCompressor">
  <UnstructuredGrid>
    <Piece NumberOfPoints="89" NumberOfCells="17">
      <PointData>
        <DataArray type="Float64" Name="node_value" NumberOfComponents="3" format="ascii" RangeMin="0.8660254037844386" RangeMax="1.7320508075688772">
          0.5 0.5 0.5 0.5 0.5 0.5
          1 1 1 1 1 1
          0.5 0.5 0.5 0.5 0.5 0.5
          1 1 1 1 1 1
          1 1 1 0.5 0.5 0.5
          1 1 1 0.5 0.5 0.5
          0.5 0.5 0.5 1 1 1
          1 1 1 0.5 0.5 0.5
          1 1 1 1 1 1
          1 1 1 0.5 0.5 0.5
          0.5 0.5 0.5 0.5 0.5 0.5
          1 1 1 1 1 1
          1 1 1 1 1 1
          0.5 0.5 0.5 1 1 1
          0.5 0.5 0.5 1 1 1
          1 1 1 0.5 0.5 0.5
          1 1 1 1 1 1
          1 1 1 1 1 1
          0.5 0.5 0.5 0.5 0.5 0.5
          1 1 1 0.5 0.5 0.5
          0.5 0.5 0.5 1 1 1
          0.5 0.5 0.5 1 1 1
          0.5 0.5 0.5 1 1 1
          1 1 1 1 1 1
          1 1 1 1 1 1
          1 1 1 1 1 1
          0.5 0.5 0.5 0.5 0.5 0.5
          0.5 0.5 0.5 0.5 0.5 0.5
          1 1 1 1 1 1
          1 1 1 1 1 1
          0.5 0.5 0.5 0.5 0.5 0.5
          0.5 0.5 0.5 0.5 0.5 0.5
          0.5 0.5 0.5 0.5 0.5 0.5
          1 1 1 1 1 1
          0.5 0.5 0.5 1 1 1
          1 1 1 1 1 1
          1 1 1 0.5 0.5 0.5
          0.5 0.5 0.5 1 1 1
          0.5 0.5 0.5 0.5 0.5 0.5
          1 1 1 0.5 0.5 0.5
          1 1 1 1 1 1
          0.5 0.5 0.5 1 1 1
          0.5 0.5 0.5 1 1 1
          0.5 0.5 0.5 0.5 0.5 0.5
          0.5 0.5 0.5
          <InformationKey name="L2_NORM_RANGE" location="vtkDataArray" length="2">
            <Value index="0">
              0.86602540378
            </Value>
            <Value index="1">
              1.7320508076
            </Value>
          </InformationKey>
        </DataArray>
        <DataArray type="Float64" Name="base_vector_1" NumberOfComponents="3" format="ascii" RangeMin="0.22975292054736116" RangeMax="1.0000000000000002">
          0 1 0 0.4472135954999579 0.8944271909999161 0
          0 0.9296181273332774 0 -0.24253562503633297 0.970142500145332 0
          1 0 0 -0.4472135954999579 0.8944271909999161 0
          -0.3448746102681455 0.932284845572624 0 0 1 0
          -0.22360679774997896 -0.9472135954999581 0 -0.24253562503633297 0.970142500145332 0
          0 1 0 0 1 0
          0 -1 0 -0.4472135954999579 0.8944271909999161 0
          0.4472135954999579 0.8944271909999161 0 -0.4472135954999579 0.8944271909999161 0
          0.4472135954999579 0.8944271909999161 0 0 -1 0
          0 1 0 0 1 0
          0 1 0 -0.4472135954999579 0.8944271909999161 0
          -0.5 -0.5 0 1 0 0
          0 1 0 0.4472135954999579 0.8944271909999161 0
          0 1 0 0.4472135954999579 0.8944271909999161 0
          0.4472135954999579 0.8944271909999161 0 1 0 0
          0 1 0 0.4472135954999579 0.8944271909999161 0
          -0.22360679774997896 0.05278640450004196 0 0.4472135954999579 0.8944271909999161 0
          0.22360679774997896 -0.05278640450004196 0 1 0 0
          0.4472135954999579 0.8944271909999161 0 -1 0 0
          0.4472135954999579 0.8944271909999161 0 0 -1 0
          0 1 0 0 -1 0
          1 0 0 0.4472135954999579 0.8944271909999161 0
          -1 0 0 -1 0 0
          -0.4472135954999579 -0.8944271909999161 0 0.4472135954999579 0.8944271909999161 0
          -0.4472135954999579 -0.8944271909999161 0 -0.4472135954999579 -0.8944271909999161 0
          0 -1 0 1 0 0
          -0.4472135954999579 -0.8944271909999161 0 -0.4472135954999579 -0.8944271909999161 0
          0.4472135954999579 0.8944271909999161 0 1 0 0
          0 -1 0 0 1 0
          0.5 0.5 0 0 -1 0
          -0.4472135954999579 0.8944271909999161 0 0 -1 0
          0 -1 0 0.4472135954999579 0.8944271909999161 0
          -0.24253562503633297 0.970142500145332 0 0 -1 0
          0.22360679774997896 0.9472135954999581 0 -0.5 0.5 0
          0 1 0 -0.4472135954999579 -0.8944271909999161 0
          0.5 -0.5 0 -0.4472135954999579 0.8944271909999161 0
          0 1 0 0.4472135954999579 0.8944271909999161 0
          0 -1 0 -0.4472135954999579 0.8944271909999161 0
          -0.4472135954999579 -0.8944271909999161 0 0.4472135954999579 0.8944271909999161 0
          1 0 0 0 1 0
          1 0 0 0 1 0
          0 1 0 0 0.9296181273332774 0
          -0.4472135954999579 -0.8944271909999161 0 -0.12126781251816648 0.9850712500726659 0
          1 0 0 1 0 0
          0 1 0
          <InformationKey name="L2_NORM_RANGE" location="vtkDataArray" length="2">
            <Value index="0">
              0.22975292055
            </Value>
            <Value index="1">
              1
            </Value>
          </InformationKey>
        </DataArray>
        <DataArray type="Float64" Name="base_vector_2" NumberOfComponents="3" format="ascii" RangeMin="0.7071067811865476" RangeMax="1.0000000000000002">
          0 0 1 0 0 1.0000000000000002
          0 0 1 0 0 1
          0 1 0 0 0 1.0000000000000002
          0 0 1 0 0 1
          0 0 1 0 0 1
          0 0 1 0 0 1
          0 0 1 0 0 1.0000000000000002
          0 0 1.0000000000000002 0 0 1.0000000000000002
          0 0 1.0000000000000002 0 0 1
          0 0 1 0 0 1
          0 0 1 0 0 1.0000000000000002
          0 0.5 0.5 0 1 0
          0 0 1 0 0 1.0000000000000002
          0 0 1 0 0 1.0000000000000002
          0 0 1.0000000000000002 0 1 0
          0 0 1 0 0 1.0000000000000002
          0 0 1 0 0 1.0000000000000002
          0 0 1 0 1 0
          0 0 1.0000000000000002 0 1 0
          0 0 1.0000000000000002 0 0 1
          0 0 1 0 0 1
          0 1 0 0 0 1.0000000000000002
          0 1 0 0 1 0
          0 0 1.0000000000000002 0 0 1.0000000000000002
          0 0 1.0000000000000002 0 0 1.0000000000000002
          0 0 1 0 1 0
          0 0 1.0000000000000002 0 0 1.0000000000000002
          0 0 1.0000000000000002 0 1 0
          0 0 1 0 0 1
          0 0.5 0.5 0 0 1
          0 0 1.0000000000000002 0 0 1
          0 0 1 0 0 1.0000000000000002
          0 0 1 0 0 1
          0 0 1 0 0.5 0.5
          0 0 1 0 0 1.0000000000000002
          0 0.5 0.5 0 0 1.0000000000000002
          0 0 1 0 0 1.0000000000000002
          0 0 1 0 0 1.0000000000000002
          0 0 1.0000000000000002 0 0 1.0000000000000002
          0 1 0 0 0 1
          0 1 0 0 0 1
          0 0 1 0 0 1
          0 0 1.0000000000000002 0 0 1
          0 1 0 0 1 0
          0 0 1
          <InformationKey name="L2_NORM_RANGE" location="vtkDataArray" length="2">
            <Value index="0">
              0.70710678119
            </Value>
            <Value index="1">
              1
            </Value>
          </InformationKey>
        </DataArray>
        <DataArray type="Float64" Name="base_vector_3" NumberOfComponents="3" format="ascii" RangeMin="0.22975292054736116" RangeMax="1.0000000000000002">
          1 0 0 0.8944271909999161 -0.4472135954999579 0
          0.9296181273332774 0 0 0.970142500145332 0.24253562503633297 0
          0 0 1 0.8944271909999161 0.4472135954999579 0
          0.932284845572624 0.3448746102681455 0 1 0 0
          -0.9472135954999581 0.22360679774997896 0 0.970142500145332 0.24253562503633297 0
          1 0 0 1 0 0
          -1 0 0 0.8944271909999161 0.4472135954999579 0
          0.8944271909999161 -0.4472135954999579 0 0.8944271909999161 0.4472135954999579 0
          0.8944271909999161 -0.4472135954999579 0 -1 0 0
          1 0 0 1 0 0
          1 0 0 0.8944271909999161 0.4472135954999579 0
          -0.5 0 -0.5 0 0 1
          1 0 0 0.8944271909999161 -0.4472135954999579 0
          1 0 0 0.8944271909999161 -0.4472135954999579 0
          0.8944271909999161 -0.4472135954999579 0 0 0 1
          1 0 0 0.8944271909999161 -0.4472135954999579 0
          0.05278640450004196 0.22360679774997896 0 0.8944271909999161 -0.4472135954999579 0
          -0.05278640450004196 -0.22360679774997896 0 0 0 1
          0.8944271909999161 -0.4472135954999579 0 0 0 -1
          0.8944271909999161 -0.4472135954999579 0 -1 0 0
          1 0 0 -1 0 0
          0 0 1 0.8944271909999161 -0.4472135954999579 0
          0 0 -1 0 0 -1
          -0.8944271909999161 0.4472135954999579 0 0.8944271909999161 -0.4472135954999579 0
          -0.8944271909999161 0.4472135954999579 0 -0.8944271909999161 0.4472135954999579 0
          -1 0 0 0 0 1
          -0.8944271909999161 0.4472135954999579 0 -0.8944271909999161 0.4472135954999579 0
          0.8944271909999161 -0.4472135954999579 0 0 0 1
          -1 0 0 1 0 0
          0.5 0 0.5 -1 0 0
          0.8944271909999161 0.4472135954999579 0 -1 0 0
          -1 0 0 0.8944271909999161 -0.4472135954999579 0
          0.970142500145332 0.24253562503633297 0 -1 0 0
          0.9472135954999581 -0.22360679774997896 0 0.5 0 -0.5
          1 0 0 -0.8944271909999161 0.4472135954999579 0
          -0.5 0 0.5 0.8944271909999161 0.4472135954999579 0
          1 0 0 0.8944271909999161 -0.4472135954999579 0
          -1 0 0 0.8944271909999161 0.4472135954999579 0
          -0.8944271909999161 0.4472135954999579 0 0.8944271909999161 -0.4472135954999579 0
          0 0 1 1 0 0
          0 0 1 1 0 0
          1 0 0 0.9296181273332774 0 0
          -0.8944271909999161 0.4472135954999579 0 0.9850712500726659 0.12126781251816648 0
          0 0 1 0 0 1
          1 0 0
          <InformationKey name="L2_NORM_RANGE" location="vtkDataArray" length="2">
            <Value index="0">
              0.22975292055
            </Value>
            <Value index="1">
              1
            </Value>
          </InformationKey>
        </DataArray>
      </PointData>
      <CellData>
      </CellData>
      <Points>
        <DataArray type="Float32" Name="Points" NumberOfComponents="3" format="ascii" RangeMin="0" RangeMax="6.34428877022476">
          0 0.75 2 0.125 1.25 6
          0 1 6 -0.25 1 6
          0.25 0 0 -0.125 1.25 5
          -0.5 2 6 0 0 1
          0 1 4 -0.375 1.5 6
          0 0.5 1 1 0.25 0
          0 0.75 3 -0.25 1.5 6
          0.5 2 1 -0.125 1.25 6
          0.5 2 3 0 0 4
          1 0.5 0 0 0.75 1
          0 0.25 2 -0.375 1.75 5
          0 1 0 1 0 -2
          0 0.5 5 0.25 1.5 5
          0 0.25 1 0.5 2 6
          0.125 1.25 3 0 0 -1
          0 0.5 2 0.125 1.25 5
          0 1 2 0.25 1.5 6
          0 1 3 0 0 -2
          0.375 1.75 5 0.25 1 0
          0.25 1.5 1 0 0.25 4
          0 0.75 5 0 0.5 4
          0.75 0 0 0.5 2 5
          0.75 1 0 0.5 1 0
          0.5 2 2 0.25 1.5 3
          0.5 2 4 0.25 1.5 4
          0 0 3 0.5 0 0
          0.375 1.75 2 0.375 1.75 4
          0.375 1.75 1 0.5 0 -2
          0 0.5 3 0 0 5
          1 0 0 0 0.5 0
          -0.375 1.75 6 0 0.25 0
          0 0.25 3 0.375 1.75 3
          -0.125 0.5 6 0 0.75 4
          0 1 1 1 1 0
          0 0.25 6 0.25 1.5 2
          0 0 0 -0.5 2 5
          0 0.5 6 0.125 1.25 1
          0 0.75 0 -0.25 1.5 5
          0.125 1.25 4 0.375 1.75 6
          1 0 -1 0 0.25 5
          0.5 0 -1 0 0 2
          0 0.75 6 0 1 5
          0.125 1.25 2 0 0 6
          0.25 0 -1 0.75 0 -1
          1 0.75 0
          <InformationKey name="L2_NORM_RANGE" location="vtkDataArray" length="2">
            <Value index="0">
              0
            </Value>
            <Value index="1">
              6.3442887702
            </Value>
          </InformationKey>
        </DataArray>
      </Points>
      <Cells>
        <DataArray type="Int64" Name="connectivity" format="ascii" RangeMin="0" RangeMax="88">
          35 55 23 29 86 80
          87 78 70 4 51 42
          58 58 11 18 88 67
          67 44 45 37 22 22
          74 59 61 70 7 26
          10 19 66 73 38 54
          14 81 20 30 0 32
          84 69 52 46 16 63
          47 28 34 12 56 62
          50 48 53 49 76 8
          65 41 39 17 57 79
          24 40 83 83 31 25
          36 43 83 5 75 21
          71 85 68 72 82 2
          2 1 33 77 27 2
          15 13 60 6 85 64
          3 9 6
        </DataArray>
        <DataArray type="Int64" Name="offsets" format="ascii" RangeMin="3" RangeMax="99">
          3 8 13 18 23 28
          37 46 55 64 69 74
          79 84 89 94 99
        </DataArray>
        <DataArray type="UInt8" Name="types" format="ascii" RangeMin="4" RangeMax="4">
          4 4 4 4 4 4
          4 4 4 4 4 4
          4 4 4 4 4
        </DataArray>
      </Cells>
    </Piece>
  </UnstructuredGrid>
</VTKFile>
