<?xml version="1.0"?>
<VTKFile type="UnstructuredGrid" version="0.1" byte_order="LittleEndian" header_type="UInt32" compressor="vtkZLibDataCompressor">
  <UnstructuredGrid>
    <Piece NumberOfPoints="105" NumberOfCells="102">
      <PointData>
        <DataArray type="Float64" Name="node_value" NumberOfComponents="3" format="ascii" RangeMin="0.8660254037844386" RangeMax="1.7320508075688772">
          1 1 1 1 1 1
          1 1 1 1 1 1
          1 1 1 0.5 0.5 0.5
          0.5 0.5 0.5 0.5 0.5 0.5
          0.5 0.5 0.5 0.5 0.5 0.5
          1 1 1 1 1 1
          1 1 1 1 1 1
          1 1 1 0.5 0.5 0.5
          0.5 0.5 0.5 0.5 0.5 0.5
          0.5 0.5 0.5 0.5 0.5 0.5
          1 1 1 1 1 1
          1 1 1 1 1 1
          1 1 1 0.5 0.5 0.5
          0.5 0.5 0.5 0.5 0.5 0.5
          0.5 0.5 0.5 0.5 0.5 0.5
          1 1 1 1 1 1
          1 1 1 1 1 1
          1 1 1 0.5 0.5 0.5
          0.5 0.5 0.5 0.5 0.5 0.5
          0.5 0.5 0.5 0.5 0.5 0.5
          1 1 1 1 1 1
          1 1 1 1 1 1
          1 1 1 0.5 0.5 0.5
          0.5 0.5 0.5 0.5 0.5 0.5
          0.5 0.5 0.5 0.5 0.5 0.5
          1 1 1 1 1 1
          1 1 1 1 1 1
          1 1 1 0.5 0.5 0.5
          0.5 0.5 0.5 0.5 0.5 0.5
          0.5 0.5 0.5 0.5 0.5 0.5
          1 1 1 1 1 1
          1 1 1 1 1 1
          1 1 1 0.5 0.5 0.5
          0.5 0.5 0.5 0.5 0.5 0.5
          0.5 0.5 0.5 0.5 0.5 0.5
          1 1 1 1 1 1
          1 1 1 1 1 1
          1 1 1 0.5 0.5 0.5
          0.5 0.5 0.5 0.5 0.5 0.5
          0.5 0.5 0.5 0.5 0.5 0.5
          1 1 1 1 1 1
          1 1 1 1 1 1
          1 1 1 0.5 0.5 0.5
          0.5 0.5 0.5 0.5 0.5 0.5
          0.5 0.5 0.5 0.5 0.5 0.5
          1 1 1 1 1 1
          1 1 1 1 1 1
          1 1 1 0.5 0.5 0.5
          0.5 0.5 0.5 0.5 0.5 0.5
          0.5 0.5 0.5 0.5 0.5 0.5
          1 1 1 1 1 1
          1 1 1 1 1 1
          1 1 1
          <InformationKey name="L2_NORM_RANGE" location="vtkDataArray" length="2">
            <Value index="0">
              0.86602540378
            </Value>
            <Value index="1">
              1.7320508076
            </Value>
          </InformationKey>
        </DataArray>
      </PointData>
      <CellData>
      </CellData>
      <Points>
        <DataArray type="Float32" Name="Points" NumberOfComponents="3" format="ascii" RangeMin="2" RangeMax="5.176250965037701">
          2 0 0 2 -0.30331448 0.9528905
          3 -0.30331448 0.9528905 3 0 0
          2.3 -0.21232013 0.66702336 1.9021131 0.618034 0.2
          1.9042431 0.30127105 1.1485023 2.8599048 0.5812125 1.2398459
          2.8577747 0.89797544 0.29134348 2.1903026 0.4802824 0.8913547
          1.618034 1.1755705 0.4 1.6386518 0.8225232 1.3353783
          2.4668236 1.3526776 1.517224 2.4462059 1.7057248 0.58184564
          1.880918 1.0874836 1.1093185 1.1755705 1.618034 0.6
          1.243886 1.2172891 1.5136392 1.8771625 1.9423387 1.7843121
          1.808847 2.3430836 0.870673 1.4133743 1.5550275 1.3207493
          0.618034 1.9021131 0.8 0.7697166 1.4588904 1.6834852
          1.164303 2.305559 2.0404925 1.0126203 2.7487814 1.1570073
          0.8425877 1.8458577 1.5255419 5.6655387e-16 2 1
          0.26903364 1.5381908 1.8451941 0.40910706 2.4251702 2.2852478
          0.14007342 2.8869793 1.4400536 0.23034558 1.9428273 1.723652
          -0.618034 1.9021131 1.2 -0.2077923 1.462669 1.9991187
          -0.30981052 2.3113048 2.5181656 -0.72005224 2.7507489 1.719047
          -0.36147028 1.849093 1.9150972 -1.1755705 1.618034 1.4
          -0.61759466 1.2538643 2.145683 -0.9247901 1.997957 2.7389429
          -1.4827659 2.3621268 1.9932595 -0.877146 1.5863429 2.099956
          -1.618034 1.1755705 1.6 -0.9277469 0.943712 2.2853796
          -1.3857832 1.5369638 2.947388 -2.0760703 1.7688223 2.2620084
          -1.272244 1.1912451 2.2783682 -1.9021131 0.618034 1.8
          -1.1179845 0.57034975 2.4187636 -1.6642776 0.9903881 3.1434236
          -2.4484062 1.0380723 2.5246596 -1.517111 0.71066654 2.4505324
          -2 2.0212862e-15 2 -1.1807696 0.17394008 2.546449
          -1.7542341 0.42242453 3.3270857 -2.5734644 0.24848445 2.7806368
          -1.5985781 0.19630338 2.6167052 -1.9021131 -0.618034 2.2
          -1.1204275 -0.20704514 2.669101 -1.6702105 -0.1080798 3.4985254
          -2.4518962 -0.51906866 3.0294242 -1.519868 -0.3006522 2.777198
          -1.618034 -1.1755705 2.4 -0.9513941 -0.5387918 2.787433
          -1.4432119 -0.5535894 3.6580052 -2.1098518 -1.190368 3.2705724
          -1.2989315 -0.7342647 2.9323747 -1.1755705 -1.618034 2.6
          -0.69594765 -0.7942382 2.902196 -1.1150753 -0.881726 3.8058982
          -1.5946982 -1.7055218 3.5037022 -0.96557283 -1.0676233 3.0826478
          -0.618034 -1.9021131 2.8 -0.3817615 -0.9543241 3.0141761
          -0.73230577 -1.076757 3.9426851 -0.9685783 -2.024546 3.728509
          -0.5578065 -1.2753906 3.2284758 -2.1437508e-15 -2 3
          -0.039528843 -1.0085284 3.1241834 -0.3402565 -1.1388514 4.0689473
          -0.3007277 -2.130323 3.944764 -0.117888495 -1.3450668 3.3703575
          0.618034 -1.9021131 3.2 0.2991985 -0.9548793 3.2330472
          0.021619853 -1.0815358 4.1853647 0.34045535 -2.0287695 4.1523175
          0.31157556 -1.2770464 3.5088282 1.1755705 -1.618034 3.4
          0.6039273 -0.79961216 3.3416066 0.32298222 -0.927984 4.292706
          0.89462537 -1.7464058 4.3511 0.6911367 -1.0836502 3.6444545
          1.618034 -1.1755705 3.6 0.84694153 -0.55659795 3.4507034
          0.54410493 -0.70686126 4.3918257 1.3151973 -1.3258338 4.541122
          0.9874183 -0.7873687 3.7778292 1.9021131 -0.618034 3.8
          1.0049033 -0.2465806 3.5611758 0.675801 -0.44839326 4.4836526
          1.5730108 -0.8198467 4.7224765 1.1753355 -0.41856042 3.909566
          2 -5.818929e-15 4 1.0604008 0.10381755 3.6738474
          0.7181239 -0.18117645 4.5691824 1.6577231 -0.284994 4.895335
          1.2395976 -0.0128259165 4.0402937
          <InformationKey name="L2_NORM_RANGE" location="vtkDataArray" length="2">
            <Value index="0">
              2
            </Value>
            <Value index="1">
              5.176250965
            </Value>
          </InformationKey>
        </DataArray>
      </Points>
      <Cells>
        <DataArray type="Int64" Name="connectivity" format="ascii" RangeMin="0" RangeMax="104">
          4 3 2 1 0 104
          103 102 101 100 0 5
          6 1 1 6 7 2
          2 7 8 3 3 8
          9 4 4 9 5 0
          5 10 11 6 6 11
          12 7 7 12 13 8
          8 13 14 9 9 14
          10 5 10 15 16 11
          11 16 17 12 12 17
          18 13 13 18 19 14
          14 19 15 10 15 20
          21 16 16 21 22 17
          17 22 23 18 18 23
          24 19 19 24 20 15
          20 25 26 21 21 26
          27 22 22 27 28 23
          23 28 29 24 24 29
          25 20 25 30 31 26
          26 31 32 27 27 32
          33 28 28 33 34 29
          29 34 30 25 30 35
          36 31 31 36 37 32
          32 37 38 33 33 38
          39 34 34 39 35 30
          35 40 41 36 36 41
          42 37 37 42 43 38
          38 43 44 39 39 44
          40 35 40 45 46 41
          41 46 47 42 42 47
          48 43 43 48 49 44
          44 49 45 40 45 50
          51 46 46 51 52 47
          47 52 53 48 48 53
          54 49 49 54 50 45
          50 55 56 51 51 56
          57 52 52 57 58 53
          53 58 59 54 54 59
          55 50 55 60 61 56
          56 61 62 57 57 62
          63 58 58 63 64 59
          59 64 60 55 60 65
          66 61 61 66 67 62
          62 67 68 63 63 68
          69 64 64 69 65 60
          65 70 71 66 66 71
          72 67 67 72 73 68
          68 73 74 69 69 74
          70 65 70 75 76 71
          71 76 77 72 72 77
          78 73 73 78 79 74
          74 79 75 70 75 80
          81 76 76 81 82 77
          77 82 83 78 78 83
          84 79 79 84 80 75
          80 85 86 81 81 86
          87 82 82 87 88 83
          83 88 89 84 84 89
          85 80 85 90 91 86
          86 91 92 87 87 92
          93 88 88 93 94 89
          89 94 90 85 90 95
          96 91 91 96 97 92
          92 97 98 93 93 98
          99 94 94 99 95 90
          95 100 101 96 96 101
          102 97 97 102 103 98
          98 103 104 99 99 104
          100 95
        </DataArray>
        <DataArray type="Int64" Name="offsets" format="ascii" RangeMin="5" RangeMax="410">
          5 10 14 18 22 26
          30 34 38 42 46 50
          54 58 62 66 70 74
          78 82 86 90 94 98
          102 106 110 114 118 122
          126 130 134 138 142 146
          150 154 158 162 166 170
          174 178 182 186 190 194
          198 202 206 210 214 218
          222 226 230 234 238 242
          246 250 254 258 262 266
          270 274 278 282 286 290
          294 298 302 306 310 314
          318 322 326 330 334 338
          342 346 350 354 358 362
          366 370 374 378 382 386
          390 394 398 402 406 410
        </DataArray>
        <DataArray type="UInt8" Name="types" format="ascii" RangeMin="7" RangeMax="9">
          7 7 9 9 9 9
          9 9 9 9 9 9
          9 9 9 9 9 9
          9 9 9 9 9 9
          9 9 9 9 9 9
          9 9 9 9 9 9
          9 9 9 9 9 9
          9 9 9 9 9 9
          9 9 9 9 9 9
          9 9 9 9 9 9
          9 9 9 9 9 9
          9 9 9 9 9 9
          9 9 9 9 9 9
          9 9 9 9 9 9
          9 9 9 9 9 9
          9 9 9 9 9 9
          9 9 9 9 9 9
        </DataArray>
      </Cells>
    </Piece>
  </UnstructuredGrid>
</VTKFile>
