<?xml version="1.0" ?> 
<!-- 
# vtk DataFile Version 3.0
-->
<VTKFile type="UnstructuredGrid" version="1.0" byte_order="LittleEndian" header_type="UInt64">
  <UnstructuredGrid>
    <FieldData>
      <DataArray type="Float64" Name="TIME" NumberOfTuples="1" format="ascii" RangeMin="0.9999999999999999" RangeMax="0.9999999999999999">
        0.9999999999999999
      </DataArray>
    </FieldData>
    <Piece NumberOfPoints="320" NumberOfCells="40">
      <PointData>
        <DataArray type="Float64" Name="displacement" NumberOfComponents="3" format="ascii" RangeMin="0" RangeMax="10.627848342681567">
          -1.030956567377045 1.958190787833729e-15 2.050154549034778 -1.030956567377045 1.658856656721184e-15 2.050154549034778
          -0.7526934100030621 1.193170975769299e-15 1.611793285771554 -0.7526934100030624 1.625622061222122e-15 1.611793285771553
          -0.9398313439078552 1.729528623787468e-15 2.108989913269147 -0.939831343907855 1.836861421871179e-15 2.108989913269148
          -0.6655875717462598 1.395259975548159e-15 1.662700845565543 -0.6655875717462604 1.430496732572626e-15 1.662700845565542
          -0.9398313439078552 1.729528623787468e-15 2.108989913269147 -0.939831343907855 1.836861421871179e-15 2.108989913269148
          -0.6655875717462598 1.395259975548159e-15 1.662700845565543 -0.6655875717462604 1.430496732572626e-15 1.662700845565542
          -0.8487038667194321 1.966156255979941e-15 2.167830332315723 -0.8487038667194319 1.943293190315484e-15 2.167830332315723
          -0.5784871668941057 1.610220706664502e-15 1.713599369138398 -0.5784871668941064 1.277723303142946e-15 1.713599369138397
          -1.344871485358107 2.347239282172909e-15 2.506510390245663 -1.344871485358106 2.102383230638974e-15 2.506510390245663
          -1.030956567377045 1.658856656721184e-15 2.050154549034778 -1.030956567377045 1.958190787833729e-15 2.050154549034778
          -1.25096865756293 2.301693969182355e-15 2.572143372709346 -1.250968657562928 2.216497876287537e-15 2.572143372709346
          -0.939831343907855 1.836861421871179e-15 2.108989913269148 -0.9398313439078552 1.729528623787468e-15 2.108989913269147
          -1.25096865756293 2.301693969182355e-15 2.572143372709346 -1.250968657562928 2.216497876287537e-15 2.572143372709346
          -0.939831343907855 1.836861421871179e-15 2.108989913269148 -0.9398313439078552 1.729528623787468e-15 2.108989913269147
          -1.157067743110705 2.284127447250295e-15 2.637771411711936 -1.157067743110704 2.318230741130202e-15 2.637771411711936
          -0.8487038667194319 1.943293190315484e-15 2.167830332315723 -0.8487038667194321 1.966156255979941e-15 2.167830332315723
          -1.689256855040674 2.276112968048239e-15 2.975534639683924 -1.689256855040673 2.301912629166979e-15 2.975534639683924
          -1.344871485358106 2.102383230638974e-15 2.506510390245663 -1.344871485358107 2.347239282172909e-15 2.506510390245663
          -1.593450462844414 2.617842498014871e-15 3.046892461739578 -1.593450462844413 2.460116127700204e-15 3.046892461739578
          -1.250968657562928 2.216497876287537e-15 2.572143372709346 -1.25096865756293 2.301693969182355e-15 2.572143372709346
          -1.593450462844414 2.617842498014871e-15 3.046892461739578 -1.593450462844413 2.460116127700204e-15 3.046892461739578
          -1.250968657562928 2.216497876287537e-15 2.572143372709346 -1.25096865756293 2.301693969182355e-15 2.572143372709346
          -1.497643262009373 2.566909139507419e-15 3.118253008260253 -1.497643262009372 2.519151089659844e-15 3.118253008260253
          -1.157067743110704 2.318230741130202e-15 2.637771411711936 -1.157067743110705 2.284127447250295e-15 2.637771411711936
          -2.05932981254633 2.830444674233393e-15 3.453449550468725 -2.059329812546329 2.726271301447335e-15 3.453449550468724
          -1.689256855040673 2.301912629166979e-15 2.975534639683924 -1.689256855040674 2.276112968048239e-15 2.975534639683924
          -1.962220696825332 2.686700691079556e-15 3.52958978356196 -1.962220696825331 2.767243876595629e-15 3.52958978356196
          -1.593450462844413 2.460116127700204e-15 3.046892461739578 -1.593450462844414 2.617842498014871e-15 3.046892461739578
          -1.962220696825332 2.686700691079556e-15 3.52958978356196 -1.962220696825331 2.767243876595629e-15 3.52958978356196
          -1.593450462844413 2.460116127700204e-15 3.046892461739578 -1.593450462844414 2.617842498014871e-15 3.046892461739578
          -1.865112245774774 2.805669829985795e-15 3.605727443031208 -1.865112245774772 2.818605126708483e-15 3.605727443031208
          -1.497643262009372 2.519151089659844e-15 3.118253008260253 -1.497643262009373 2.566909139507419e-15 3.118253008260253
          -2.450827530681152 2.837368000051878e-15 3.937617382369999 -2.45082753068115 2.645189476960637e-15 3.937617382369999
          -2.059329812546329 2.726271301447335e-15 3.453449550468724 -2.05932981254633 2.830444674233393e-15 3.453449550468725
          -2.352831032167722 2.850171464353309e-15 4.017708909469899 -2.352831032167721 3.045120830029551e-15 4.017708909469899
          -1.962220696825331 2.767243876595629e-15 3.52958978356196 -1.962220696825332 2.686700691079556e-15 3.52958978356196
          -2.352831032167722 2.850171464353309e-15 4.017708909469899 -2.352831032167721 3.045120830029551e-15 4.017708909469899
          -1.962220696825331 2.767243876595629e-15 3.52958978356196 -1.962220696825332 2.686700691079556e-15 3.52958978356196
          -2.254834243529821 3.197983417412631e-15 4.097801867738429 -2.25483424352982 3.265286545276576e-15 4.09780186773843
          -1.865112245774772 2.818605126708483e-15 3.605727443031208 -1.865112245774774 2.805669829985795e-15 3.605727443031208
          -2.860034925704323 3.321124607982772e-15 4.426187537814527 -2.860034925704322 3.333697284989291e-15 4.426187537814528
          -2.45082753068115 2.645189476960637e-15 3.937617382369999 -2.450827530681152 2.837368000051878e-15 3.937617382369999
          -2.761434249927316 3.336918304748088e-15 4.509524027032021 -2.761434249927315 3.204605502845343e-15 4.509524027032021
          -2.352831032167721 3.045120830029551e-15 4.017708909469899 -2.352831032167722 2.850171464353309e-15 4.017708909469899
          -2.761434249927316 3.336918304748088e-15 4.509524027032021 -2.761434249927315 3.204605502845343e-15 4.509524027032021
          -2.352831032167721 3.045120830029551e-15 4.017708909469899 -2.352831032167722 2.850171464353309e-15 4.017708909469899
          -2.662833806245439 3.538911266283015e-15 4.592859201557403 -2.662833806245438 3.562855249333605e-15 4.592859201557403
          -2.25483424352982 3.265286545276576e-15 4.09780186773843 -2.254834243529821 3.197983417412631e-15 4.097801867738429
          -3.283750241682242 3.512710455623039e-15 4.917875688220331 -3.283750241682239 3.455456867751622e-15 4.91787568822033
          -2.860034925704322 3.333697284989291e-15 4.426187537814528 -2.860034925704323 3.321124607982772e-15 4.426187537814527
          -3.184739593135383 3.596475459452936e-15 5.003849022092926 -3.184739593135381 3.518532175172737e-15 5.003849022092926
          -2.761434249927315 3.204605502845343e-15 4.509524027032021 -2.761434249927316 3.336918304748088e-15 4.509524027032021
          -3.184739593135383 3.596475459452936e-15 5.003849022092926 -3.184739593135381 3.518532175172737e-15 5.003849022092926
          -2.761434249927315 3.204605502845343e-15 4.509524027032021 -2.761434249927316 3.336918304748088e-15 4.509524027032021
          -3.085728838598188 4.103579188073015e-15 5.089823102046176 -3.085728838598185 3.955249157299363e-15 5.089823102046176
          -2.662833806245438 3.562855249333605e-15 4.592859201557403 -2.662833806245439 3.538911266283015e-15 4.592859201557403
          -0.03029477214484812 4.325574441316408e-16 0.06125356258796405 -0.03029477214484676 2.876983652581749e-16 0.06125356258796435
          0 0 0 0 0 0
          -0.004836524607148591 2.555359047141974e-16 0.06465155241416795 -0.00483652460714841 2.883188774862254e-16 0.06465155241416806
          0 0 0 0 0 0
          -0.004836524607148591 2.555359047141974e-16 0.06465155241416795 -0.00483652460714841 2.883188774862254e-16 0.06465155241416806
          0 0 0 0 0 0
          0.02064188976227763 1.19901599029092e-16 0.06805779683021944 0.02064188976227879 1.116614968926079e-16 0.06805779683021977
          0 0 0 0 0 0
          -0.08485155002140177 5.992830023349276e-16 0.2335754598841215 -0.08485155002140157 5.085342327958357e-16 0.2335754598841211
          -0.03029477214484676 2.876983652581749e-16 0.06125356258796435 -0.03029477214484812 4.325574441316408e-16 0.06125356258796405
          -0.03883990009518322 6.521922936942306e-16 0.2448414806651472 -0.03883990009518338 3.248356001529364e-16 0.2448414806651466
          -0.00483652460714841 2.883188774862254e-16 0.06465155241416806 -0.004836524607148591 2.555359047141974e-16 0.06465155241416795
          -0.03883990009518322 6.521922936942306e-16 0.2448414806651472 -0.03883990009518338 3.248356001529364e-16 0.2448414806651466
          -0.00483652460714841 2.883188774862254e-16 0.06465155241416806 -0.004836524607148591 2.555359047141974e-16 0.06465155241416795
          0.007139232486690294 8.548331289750462e-16 0.2560929565706854 0.007139232486690903 7.410304872293464e-16 0.256092956570685
          0.02064188976227879 1.116614968926079e-16 0.06805779683021977 0.02064188976227763 1.19901599029092e-16 0.06805779683021944
          -0.1802475469025776 8.98976464065583e-16 0.4941186677504982 -0.1802475469025773 5.417634721871499e-16 0.4941186677504978
          -0.08485155002140157 5.085342327958357e-16 0.2335754598841211 -0.08485155002140177 5.992830023349276e-16 0.2335754598841215
          -0.1186343908543675 6.717884307049304e-16 0.5154038684293294 -0.1186343908543672 4.363782329005829e-16 0.5154038684293292
          -0.03883990009518338 3.248356001529364e-16 0.2448414806651466 -0.03883990009518322 6.521922936942306e-16 0.2448414806651472
          -0.1186343908543675 6.717884307049304e-16 0.5154038684293294 -0.1186343908543672 4.363782329005829e-16 0.5154038684293292
          -0.03883990009518338 3.248356001529364e-16 0.2448414806651466 -0.03883990009518322 6.521922936942306e-16 0.2448414806651472
          -0.05700590379955144 6.260659758492696e-16 0.5367016899087353 -0.05700590379955117 5.744179442898826e-16 0.536701689908735
          0.007139232486690903 7.410304872293464e-16 0.256092956570685 0.007139232486690294 8.548331289750462e-16 0.2560929565706854
          -0.3235340518087567 7.641736752992217e-16 0.8217657039847125 -0.3235340518087562 6.932087479968682e-16 0.8217657039847124
          -0.1802475469025773 5.417634721871499e-16 0.4941186677504978 -0.1802475469025776 8.98976464065583e-16 0.4941186677504982
          -0.2504259741558739 1.052412671903659e-15 0.8535745505793255 -0.2504259741558734 9.601664542339662e-16 0.8535745505793253
          -0.1186343908543672 4.363782329005829e-16 0.5154038684293292 -0.1186343908543675 6.717884307049304e-16 0.5154038684293294
          -0.2504259741558739 1.052412671903659e-15 0.8535745505793255 -0.2504259741558734 9.601664542339662e-16 0.8535745505793253
          -0.1186343908543672 4.363782329005829e-16 0.5154038684293292 -0.1186343908543675 6.717884307049304e-16 0.5154038684293294
          -0.1773325605474712 9.303342078232696e-16 0.88536893180852 -0.1773325605474702 6.780240113930944e-16 0.88536893180852
          -0.05700590379955117 5.744179442898826e-16 0.536701689908735 -0.05700590379955144 6.260659758492696e-16 0.5367016899087353
          -0.5153240643296829 1.142041588932694e-15 1.198912751979825 -0.5153240643296827 1.125896485451069e-15 1.198912751979826
          -0.3235340518087562 6.932087479968682e-16 0.8217657039847124 -0.3235340518087567 7.641736752992217e-16 0.8217657039847125
          -0.4340078031335796 1.041470940833292e-15 1.240739971349042 -0.4340078031335794 9.893359095176097e-16 1.240739971349043
          -0.2504259741558734 9.601664542339662e-16 0.8535745505793253 -0.2504259741558739 1.052412671903659e-15 0.8535745505793255
          -0.4340078031335796 1.041470940833292e-15 1.240739971349042 -0.4340078031335794 9.893359095176097e-16 1.240739971349043
          -0.2504259741558734 9.601664542339662e-16 0.8535745505793253 -0.2504259741558739 1.052412671903659e-15 0.8535745505793255
          -0.3526853901250344 1.187000456777657e-15 1.282575984262292 -0.3526853901250344 1.028615535493701e-15 1.282575984262292
          -0.1773325605474702 6.780240113930944e-16 0.88536893180852 -0.1773325605474712 9.303342078232696e-16 0.88536893180852
          -0.7526934100030624 1.625622061222122e-15 1.611793285771553 -0.7526934100030621 1.193170975769299e-15 1.611793285771554
          -0.5153240643296827 1.125896485451069e-15 1.198912751979826 -0.5153240643296829 1.142041588932694e-15 1.198912751979825
          -0.6655875717462604 1.430496732572626e-15 1.662700845565542 -0.6655875717462598 1.395259975548159e-15 1.662700845565543
          -0.4340078031335794 9.893359095176097e-16 1.240739971349043 -0.4340078031335796 1.041470940833292e-15 1.240739971349042
          -0.6655875717462604 1.430496732572626e-15 1.662700845565542 -0.6655875717462598 1.395259975548159e-15 1.662700845565543
          -0.4340078031335794 9.893359095176097e-16 1.240739971349043 -0.4340078031335796 1.041470940833292e-15 1.240739971349042
          -0.5784871668941064 1.277723303142946e-15 1.713599369138397 -0.5784871668941057 1.610220706664502e-15 1.713599369138398
          -0.3526853901250344 1.028615535493701e-15 1.282575984262292 -0.3526853901250344 1.187000456777657e-15 1.282575984262292
          -3.719228792833522 3.723803924952075e-15 5.41178233985451 -3.71922879283352 3.67886404773999e-15 5.41178233985451
          -3.283750241682239 3.455456867751622e-15 4.91787568822033 -3.283750241682242 3.512710455623039e-15 4.917875688220331
          -3.619940390785273 4.157358148690812e-15 5.499877864058003 -3.619940390785271 3.8637513454342e-15 5.499877864058003
          -3.184739593135381 3.518532175172737e-15 5.003849022092926 -3.184739593135383 3.596475459452936e-15 5.003849022092926
          -3.619940390785273 4.157358148690812e-15 5.499877864058003 -3.619940390785271 3.8637513454342e-15 5.499877864058003
          -3.184739593135381 3.518532175172737e-15 5.003849022092926 -3.184739593135383 3.596475459452936e-15 5.003849022092926
          -3.520652071996976 3.976626504640598e-15 5.587972717865343 -3.520652071996974 3.9484711971725e-15 5.587972717865343
          -3.085728838598185 3.955249157299363e-15 5.089823102046176 -3.085728838598188 4.103579188073015e-15 5.089823102046176
          -4.164115915303999 3.381454516659245e-15 5.907282674984008 -4.164115915303995 3.521796813268771e-15 5.907282674984007
          -3.71922879283352 3.67886404773999e-15 5.41178233985451 -3.719228792833522 3.723803924952075e-15 5.41178233985451
          -4.064640384194136 4.057613304800198e-15 5.997057035722231 -4.064640384194133 3.878960564540278e-15 5.997057035722231
          -3.619940390785271 3.8637513454342e-15 5.499877864058003 -3.619940390785273 4.157358148690812e-15 5.499877864058003
          -4.064640384194136 4.057613304800198e-15 5.997057035722231 -4.064640384194133 3.878960564540278e-15 5.997057035722231
          -3.619940390785271 3.8637513454342e-15 5.499877864058003 -3.619940390785273 4.157358148690812e-15 5.499877864058003
          -3.965164812297125 4.361288063806542e-15 6.086831790417039 -3.965164812297122 4.192524378133377e-15 6.086831790417039
          -3.520652071996974 3.9484711971725e-15 5.587972717865343 -3.520652071996976 3.976626504640598e-15 5.587972717865343
          -4.616380102189154 3.651958809317315e-15 6.403937231094723 -4.616380102189151 3.216390489232715e-15 6.403937231094721
          -4.164115915303995 3.521796813268771e-15 5.907282674984007 -4.164115915303999 3.381454516659245e-15 5.907282674984008
          -4.516779600706081 3.754617217065067e-15 6.495009404320995 -4.516779600706077 3.747563477473928e-15 6.495009404320993
          -4.064640384194133 3.878960564540278e-15 5.997057035722231 -4.064640384194136 4.057613304800198e-15 5.997057035722231
          -4.516779600706081 3.754617217065067e-15 6.495009404320995 -4.516779600706077 3.747563477473928e-15 6.495009404320993
          -4.064640384194133 3.878960564540278e-15 5.997057035722231 -4.064640384194136 4.057613304800198e-15 5.997057035722231
          -4.417179131303858 4.139769448306676e-15 6.586081227757068 -4.417179131303855 4.257737276533047e-15 6.586081227757067
          -3.965164812297122 4.192524378133377e-15 6.086831790417039 -3.965164812297125 4.361288063806542e-15 6.086831790417039
          -5.074249035881569 3.230803349363627e-15 6.901438465422204 -5.074249035881565 3.296566809020987e-15 6.901438465422203
          -4.616380102189151 3.216390489232715e-15 6.403937231094721 -4.616380102189154 3.651958809317315e-15 6.403937231094723
          -4.974566859299252 3.529122344870721e-15 6.993473034377168 -4.974566859299248 3.463391504032349e-15 6.993473034377167
          -4.516779600706077 3.747563477473928e-15 6.495009404320993 -4.516779600706081 3.754617217065067e-15 6.495009404320995
          -4.974566859299252 3.529122344870721e-15 6.993473034377168 -4.974566859299248 3.463391504032349e-15 6.993473034377167
          -4.516779600706077 3.747563477473928e-15 6.495009404320993 -4.516779600706081 3.754617217065067e-15 6.495009404320995
          -4.874884664813148 4.133188671954691e-15 7.085507825514127 -4.874884664813145 3.896818062582961e-15 7.085507825514126
          -4.417179131303855 4.257737276533047e-15 6.586081227757067 -4.417179131303858 4.139769448306676e-15 6.586081227757068
          -5.536150266925237 3.217675534610436e-15 7.399566935063596 -5.536150266925232 3.068857782320693e-15 7.399566935063596
          -5.074249035881565 3.296566809020987e-15 6.901438465422203 -5.074249035881569 3.230803349363627e-15 6.901438465422204
          -5.43641725115214 3.743494093140666e-15 7.492264992421062 -5.436417251152135 3.788003647012965e-15 7.492264992421062
          -4.974566859299248 3.463391504032349e-15 6.993473034377167 -4.974566859299252 3.529122344870721e-15 6.993473034377168
          -5.43641725115214 3.743494093140666e-15 7.492264992421062 -5.436417251152135 3.788003647012965e-15 7.492264992421062
          -4.974566859299248 3.463391504032349e-15 6.993473034377167 -4.974566859299252 3.529122344870721e-15 6.993473034377168
          -5.336684250147582 4.575431027279549e-15 7.584962849778866 -5.336684250147577 4.468747356419428e-15 7.584962849778867
          -4.874884664813145 3.896818062582961e-15 7.085507825514126 -4.874884664813148 4.133188671954691e-15 7.085507825514127
          -6.000656330932827 3.816925555635661e-15 7.898164926355789 -6.000656330932821 3.971200204071574e-15 7.898164926355789
          -5.536150266925232 3.068857782320693e-15 7.399566935063596 -5.536150266925237 3.217675534610436e-15 7.399566935063596
          -5.900895620449603 4.673000436226131e-15 7.991251181574538 -5.900895620449597 4.221848020988782e-15 7.991251181574539
          -5.436417251152135 3.788003647012965e-15 7.492264992421062 -5.43641725115214 3.743494093140666e-15 7.492264992421062
          -5.900895620449603 4.673000436226131e-15 7.991251181574538 -5.900895620449597 4.221848020988782e-15 7.991251181574539
          -5.436417251152135 3.788003647012965e-15 7.492264992421062 -5.43641725115214 3.743494093140666e-15 7.492264992421062
          -5.801134899265673 5.033785698284204e-15 8.084337590596284 -5.801134899265666 5.120445556380783e-15 8.084337590596286
          -5.336684250147577 4.468747356419428e-15 7.584962849778867 -5.336684250147582 4.575431027279549e-15 7.584962849778866
          -6.466433527109301 5.165016321366441e-15 8.397113593184796 -6.466433527109297 4.518672041060332e-15 8.397113593184798
          -6.000656330932821 3.971200204071574e-15 7.898164926355789 -6.000656330932827 3.816925555635661e-15 7.898164926355789
          -6.366664021045493 5.106817504313534e-15 8.490327874266056 -6.366664021045489 5.119376630652707e-15 8.490327874266058
          -5.900895620449597 4.221848020988782e-15 7.991251181574539 -5.900895620449603 4.673000436226131e-15 7.991251181574538
          -6.366664021045493 5.106817504313534e-15 8.490327874266056 -6.366664021045489 5.119376630652707e-15 8.490327874266058
          -5.900895620449597 4.221848020988782e-15 7.991251181574539 -5.900895620449603 4.673000436226131e-15 7.991251181574538
          -6.266894525006937 5.325243851065973e-15 8.583542008254948 -6.266894525006934 5.010893687090431e-15 8.583542008254947
          -5.801134899265666 5.120445556380783e-15 8.084337590596286 -5.801134899265673 5.033785698284204e-15 8.084337590596284
          <InformationKey name="L2_NORM_FINITE_RANGE" location="vtkDataArray" length="2">
            <Value index="0">
              0
            </Value>
            <Value index="1">
              10.627848343
            </Value>
          </InformationKey>
          <InformationKey name="L2_NORM_RANGE" location="vtkDataArray" length="2">
            <Value index="0">
              0
            </Value>
            <Value index="1">
              10.627848343
            </Value>
          </InformationKey>
        </DataArray>
        <DataArray type="Float64" Name="node_gid" format="ascii" RangeMin="0" RangeMax="125">
          45 42 36 39 44 43
          37 38 44 43 37 38
          47 46 40 41 51 48
          42 45 50 49 43 44
          50 49 43 44 53 52
          46 47 57 54 48 51
          56 55 49 50 56 55
          49 50 59 58 52 53
          63 60 54 57 62 61
          55 56 62 61 55 56
          65 64 58 59 69 66
          60 63 68 67 61 62
          68 67 61 62 71 70
          64 65 75 72 66 69
          74 73 67 68 74 73
          67 68 77 76 70 71
          81 78 72 75 80 79
          73 74 80 79 73 74
          83 82 76 77 7 4
          0 3 6 5 1 2
          6 5 1 2 11 10
          8 9 15 12 4 7
          14 13 5 6 14 13
          5 6 17 16 10 11
          21 18 12 15 20 19
          13 14 20 19 13 14
          23 22 16 17 27 24
          18 21 26 25 19 20
          26 25 19 20 29 28
          22 23 33 30 24 27
          32 31 25 26 32 31
          25 26 35 34 28 29
          39 36 30 33 38 37
          31 32 38 37 31 32
          41 40 34 35 87 84
          78 81 86 85 79 80
          86 85 79 80 89 88
          82 83 93 90 84 87
          92 91 85 86 92 91
          85 86 95 94 88 89
          99 96 90 93 98 97
          91 92 98 97 91 92
          101 100 94 95 105 102
          96 99 104 103 97 98
          104 103 97 98 107 106
          100 101 111 108 102 105
          110 109 103 104 110 109
          103 104 113 112 106 107
          117 114 108 111 116 115
          109 110 116 115 109 110
          119 118 112 113 123 120
          114 117 122 121 115 116
          122 121 115 116 125 124
          118 119
        </DataArray>
      </PointData>
      <CellData>
        <DataArray type="Float64" Name="element_gid" format="ascii" RangeMin="0" RangeMax="39">
          12 13 14 15 16 17
          18 19 20 21 22 23
          24 25 0 1 2 3
          4 5 6 7 8 9
          10 11 26 27 28 29
          30 31 32 33 34 35
          36 37 38 39
        </DataArray>
      </CellData>
      <Points>
        <DataArray type="Float64" Name="Points" NumberOfComponents="3" format="ascii" RangeMin="1" RangeMax="5.386093203798093">
          -1.5 2 0.1 -1.5 1 0.1
          -2 1 0.1 -2 2 0.1
          -1.5 2 0 -1.5 1 -3.469446951953614e-18
          -2 1 0 -2 2 -6.938893903907228e-18
          -1.5 2 0 -1.5 1 -3.469446951953614e-18
          -2 1 0 -2 2 -6.938893903907228e-18
          -1.5 2 -0.1 -1.5 1 -0.1
          -2 1 -0.1 -2 2 -0.1
          -1 2 0.1 -1 1 0.1
          -1.5 1 0.1 -1.5 2 0.1
          -1 2 0 -1 1 0
          -1.5 1 -3.469446951953614e-18 -1.5 2 0
          -1 2 0 -1 1 0
          -1.5 1 -3.469446951953614e-18 -1.5 2 0
          -1 2 -0.1 -1 1 -0.1
          -1.5 1 -0.1 -1.5 2 -0.1
          -0.5 2 0.1 -0.5 1 0.1
          -1 1 0.1 -1 2 0.1
          -0.5 2 0 -0.5 1 3.469446951953614e-18
          -1 1 0 -1 2 0
          -0.5 2 0 -0.5 1 3.469446951953614e-18
          -1 1 0 -1 2 0
          -0.5 2 -0.1 -0.5 1 -0.1
          -1 1 -0.1 -1 2 -0.1
          0 2 0.1 0 1 0.1
          -0.5 1 0.1 -0.5 2 0.1
          0 2 0 0 1 0
          -0.5 1 3.469446951953614e-18 -0.5 2 0
          0 2 0 0 1 0
          -0.5 1 3.469446951953614e-18 -0.5 2 0
          0 2 -0.1 0 1 -0.1
          -0.5 1 -0.1 -0.5 2 -0.1
          0.5 2 0.1 0.5 1 0.1
          0 1 0.1 0 2 0.1
          0.5 2 3.469446951953614e-18 0.5 1 0
          0 1 0 0 2 0
          0.5 2 3.469446951953614e-18 0.5 1 0
          0 1 0 0 2 0
          0.5 2 -0.1 0.5 1 -0.1
          0 1 -0.1 0 2 -0.1
          1 2 0.1 1 1 0.1
          0.5 1 0.1 0.5 2 0.1
          1 2 0 1 1 0
          0.5 1 0 0.5 2 3.469446951953614e-18
          1 2 0 1 1 0
          0.5 1 0 0.5 2 3.469446951953614e-18
          1 2 -0.1 1 1 -0.1
          0.5 1 -0.1 0.5 2 -0.1
          1.5 2 0.1 1.5 1 0.1
          1 1 0.1 1 2 0.1
          1.5 2 -3.469446951953614e-18 1.5 1 0
          1 1 0 1 2 0
          1.5 2 -3.469446951953614e-18 1.5 1 0
          1 1 0 1 2 0
          1.5 2 -0.1 1.5 1 -0.1
          1 1 -0.1 1 2 -0.1
          -4.5 2 0.1 -4.5 1 0.1
          -5 1 0.1 -5 2 0.1
          -4.5 2 0 -4.5 1 -1.734723475976807e-18
          -5 1 0 -5 2 0
          -4.5 2 0 -4.5 1 -1.734723475976807e-18
          -5 1 0 -5 2 0
          -4.5 2 -0.1 -4.5 1 -0.1
          -5 1 -0.1 -5 2 -0.1
          -4 2 0.1 -4 1 0.1
          -4.5 1 0.1 -4.5 2 0.1
          -4 2 0 -4 1 3.469446951953614e-18
          -4.5 1 -1.734723475976807e-18 -4.5 2 0
          -4 2 0 -4 1 3.469446951953614e-18
          -4.5 1 -1.734723475976807e-18 -4.5 2 0
          -4 2 -0.1 -4 1 -0.1
          -4.5 1 -0.1 -4.5 2 -0.1
          -3.5 2 0.1 -3.5 1 0.1
          -4 1 0.1 -4 2 0.1
          -3.5 2 0 -3.5 1 0
          -4 1 3.469446951953614e-18 -4 2 0
          -3.5 2 0 -3.5 1 0
          -4 1 3.469446951953614e-18 -4 2 0
          -3.5 2 -0.1 -3.5 1 -0.1
          -4 1 -0.1 -4 2 -0.1
          -3 2 0.1 -3 1 0.1
          -3.5 1 0.1 -3.5 2 0.1
          -3 2 0 -3 1 0
          -3.5 1 0 -3.5 2 0
          -3 2 0 -3 1 0
          -3.5 1 0 -3.5 2 0
          -3 2 -0.1 -3 1 -0.1
          -3.5 1 -0.1 -3.5 2 -0.1
          -2.5 2 0.1 -2.5 1 0.1
          -3 1 0.1 -3 2 0.1
          -2.5 2 0 -2.5 1 3.469446951953614e-18
          -3 1 0 -3 2 0
          -2.5 2 0 -2.5 1 3.469446951953614e-18
          -3 1 0 -3 2 0
          -2.5 2 -0.1 -2.5 1 -0.1
          -3 1 -0.1 -3 2 -0.1
          -2 2 0.1 -2 1 0.1
          -2.5 1 0.1 -2.5 2 0.1
          -2 2 -6.938893903907228e-18 -2 1 0
          -2.5 1 3.469446951953614e-18 -2.5 2 0
          -2 2 -6.938893903907228e-18 -2 1 0
          -2.5 1 3.469446951953614e-18 -2.5 2 0
          -2 2 -0.1 -2 1 -0.1
          -2.5 1 -0.1 -2.5 2 -0.1
          2 2 0.1 2 1 0.1
          1.5 1 0.1 1.5 2 0.1
          2 2 0 2 1 -6.938893903907228e-18
          1.5 1 0 1.5 2 -3.469446951953614e-18
          2 2 0 2 1 -6.938893903907228e-18
          1.5 1 0 1.5 2 -3.469446951953614e-18
          2 2 -0.1 2 1 -0.1
          1.5 1 -0.1 1.5 2 -0.1
          2.5 2 0.1 2.5 1 0.1
          2 1 0.1 2 2 0.1
          2.5 2 3.469446951953614e-18 2.5 1 0
          2 1 -6.938893903907228e-18 2 2 0
          2.5 2 3.469446951953614e-18 2.5 1 0
          2 1 -6.938893903907228e-18 2 2 0
          2.5 2 -0.1 2.5 1 -0.1
          2 1 -0.1 2 2 -0.1
          3 2 0.1 3 1 0.1
          2.5 1 0.1 2.5 2 0.1
          3 2 0 3 1 0
          2.5 1 0 2.5 2 3.469446951953614e-18
          3 2 0 3 1 0
          2.5 1 0 2.5 2 3.469446951953614e-18
          3 2 -0.1 3 1 -0.1
          2.5 1 -0.1 2.5 2 -0.1
          3.5 2 0.1 3.5 1 0.1
          3 1 0.1 3 2 0.1
          3.5 2 0 3.5 1 0
          3 1 0 3 2 0
          3.5 2 0 3.5 1 0
          3 1 0 3 2 0
          3.5 2 -0.1 3.5 1 -0.1
          3 1 -0.1 3 2 -0.1
          4 2 0.1 4 1 0.1
          3.5 1 0.1 3.5 2 0.1
          4 2 3.469446951953614e-18 4 1 0
          3.5 1 0 3.5 2 0
          4 2 3.469446951953614e-18 4 1 0
          3.5 1 0 3.5 2 0
          4 2 -0.1 4 1 -0.1
          3.5 1 -0.1 3.5 2 -0.1
          4.5 2 0.1 4.5 1 0.1
          4 1 0.1 4 2 0.1
          4.5 2 -1.734723475976807e-18 4.5 1 0
          4 1 0 4 2 3.469446951953614e-18
          4.5 2 -1.734723475976807e-18 4.5 1 0
          4 1 0 4 2 3.469446951953614e-18
          4.5 2 -0.1 4.5 1 -0.1
          4 1 -0.1 4 2 -0.1
          5 2 0.1 5 1 0.1
          4.5 1 0.1 4.5 2 0.1
          5 2 0 5 1 0
          4.5 1 0 4.5 2 -1.734723475976807e-18
          5 2 0 5 1 0
          4.5 1 0 4.5 2 -1.734723475976807e-18
          5 2 -0.1 5 1 -0.1
          4.5 1 -0.1 4.5 2 -0.1
          <InformationKey name="L2_NORM_FINITE_RANGE" location="vtkDataArray" length="2">
            <Value index="0">
              1
            </Value>
            <Value index="1">
              5.3860932038
            </Value>
          </InformationKey>
          <InformationKey name="L2_NORM_RANGE" location="vtkDataArray" length="2">
            <Value index="0">
              1
            </Value>
            <Value index="1">
              5.3860932038
            </Value>
          </InformationKey>
        </DataArray>
      </Points>
      <Cells>
        <DataArray type="Int64" Name="connectivity" format="ascii" RangeMin="0" RangeMax="319">
          0 1 2 3 4 5
          6 7 8 9 10 11
          12 13 14 15 16 17
          18 19 20 21 22 23
          24 25 26 27 28 29
          30 31 32 33 34 35
          36 37 38 39 40 41
          42 43 44 45 46 47
          48 49 50 51 52 53
          54 55 56 57 58 59
          60 61 62 63 64 65
          66 67 68 69 70 71
          72 73 74 75 76 77
          78 79 80 81 82 83
          84 85 86 87 88 89
          90 91 92 93 94 95